LAMMPS (29 Oct 2020)
  using 12 OpenMP thread(s) per MPI task
Reading data file ...
  orthogonal box = (-709.00000 -659.00000 -772.50000) to (709.00000 659.00000 772.50000)
  2 by 2 by 4 MPI processor grid
  reading atoms ...
  300146 atoms
  reading velocities ...
  300146 velocities
  scanning bonds ...
  1 = max bonds/atom
  reading bonds ...
  298197 bonds
Finding 1-2 1-3 1-4 neighbors ...
  special bond factors lj:    0.0      0.0      0.0     
  special bond factors coul:  0.0      0.0      0.0     
     2 = max # of 1-2 neighbors
     2 = max # of 1-3 neighbors
     4 = max # of 1-4 neighbors
     6 = max # of special neighbors
  special bonds CPU = 0.055 seconds
  read_data CPU = 2.229 seconds
Setting atom values ...
  9745 settings made for charge
Setting atom values ...
  1949 settings made for charge
Setting atom values ...
  5847 settings made for charge
Setting atom values ...
  3898 settings made for charge
Finding 1-2 1-3 1-4 neighbors ...
  special bond factors lj:    0.0      1.0      1.0     
  special bond factors coul:  0.0      1.0      1.0     
     2 = max # of 1-2 neighbors
     6 = max # of special neighbors
  special bonds CPU = 0.027 seconds
Neighbor list info ...
  update every 20 steps, delay 0 steps, check yes
  max neighbors/atom: 2000, page size: 100000
  master list distance cutoff = 38
  ghost atom cutoff = 38
  binsize = 11.5, bins = 124 115 135
  1 neighbor lists, perpetual/occasional/extra = 1 0 0
  (1) pair ljlambda, perpetual
      attributes: half, newton on
      pair build: half/multi/newton
      stencil: half/multi/3d/newton
      bin: standard
Setting up Verlet run ...
  Unit style    : real
  Current step  : 0
  Time step     : 10.0
Per MPI rank memory allocation (min/avg/max) = 37.92 | 52.36 | 74.69 Mbytes
Step PotEng E_bond E_vdwl E_coul KinEng Temp Press Density 
       0   -50472.541    3507.3266   -53235.227   -744.64087    268402.57          300    8.9798637  0.017080537 
     100   -18707.198    59202.575   -77157.467   -752.30572    237231.28     265.1591   0.85065326  0.017080537 
     200   -16376.539    62035.069   -77655.765    -755.8438    235534.75    263.26284   0.57532036  0.017080537 
     300   -13696.069    64441.136   -77374.382   -762.82305    233535.88    261.02866   0.21803009  0.017080537 
     400   -11254.152     66814.83   -77322.496   -746.48567    231721.99    259.00124 -0.018708808  0.017080537 
     500   -9514.4503    68088.278   -76856.782   -745.94575    230735.52    257.89864 -0.012375519  0.017080537 
     600   -7980.5571    69490.102   -76731.538   -739.12087    229934.72    257.00356 -0.078116954  0.017080537 
     700   -6805.3745    70526.052   -76587.174   -744.25315    229521.42    256.54161 -0.064549929  0.017080537 
     800   -5679.9036    71386.892   -76319.503   -747.29248    229089.68    256.05903 0.0039574928  0.017080537 
     900   -5114.3627    72245.517   -76617.446   -742.43409    229111.48    256.08341 -0.056990587  0.017080537 
    1000   -4505.0562    72691.076   -76456.852     -739.281    229288.61    256.28139 -0.0070803162  0.017080537 
    1100   -3984.8458    73379.203   -76622.133   -741.91584     229619.2     256.6509  -0.03806142  0.017080537 
    1200   -3241.1965    74067.286   -76564.636   -743.84622    229591.07    256.61946  0.016625471  0.017080537 
    1300   -2670.0873    74597.094   -76528.509   -738.67155    229864.69    256.92528 -0.012264006  0.017080537 
    1400   -2085.4242    75190.206   -76534.812   -740.81895    230098.94    257.18712  -0.03020101  0.017080537 
    1500    -1868.977    75158.951   -76293.726   -734.20201    230738.27    257.90171  0.025501615  0.017080537 
    1600   -1828.7389    75415.022   -76504.213   -739.54783    231251.73    258.47561 -0.0084853501  0.017080537 
    1700   -1124.0923    75882.503    -76266.72   -739.87503    231293.29    258.52207 -0.081171931  0.017080537 
    1800   -646.01719    76375.028    -76271.89   -749.15469    231567.08    258.82809 -0.028367809  0.017080537 
    1900   -306.44898    76580.681   -76139.746   -747.38342    231919.45    259.22194 -0.010997348  0.017080537 
    2000    -86.84915    76862.282   -76198.093   -751.03873    232424.39    259.78633 -0.050972265  0.017080537 
    2100     548.0074    77396.715   -76107.786   -740.92136    232440.85    259.80473  -0.03385304  0.017080537 
    2200    621.18545     77341.71   -75974.462   -746.06269    233169.88    260.61957  0.040104856  0.017080537 
    2300    619.23536    77420.999    -76059.49   -742.27336     233881.9    261.41541  0.044879705  0.017080537 
    2400    1120.0523    77907.012   -76050.683   -736.27676    234004.53    261.55248 -0.062623814  0.017080537 
    2500    1350.2356    77998.292   -75903.678   -744.37794    234361.67    261.95167  0.014690517  0.017080537 
    2600    1508.7046    78226.551   -75977.987   -739.85939    234780.54    262.41985  0.023100741  0.017080537 
    2700    1877.3767    78310.317   -75690.943   -741.99753    235017.38    262.68457  0.012632034  0.017080537 
    2800    1902.9618    78536.867   -75890.564    -743.3412    235586.58    263.32078 -0.034487146  0.017080537 
    2900    2372.2793    78889.758    -75773.89   -743.58803    235708.43    263.45698  0.020848251  0.017080537 
    3000    2389.0208    78864.074   -75722.913   -752.14101     236268.5    264.08298 0.0023454629  0.017080537 
    3100     2755.451    79297.637    -75795.24   -746.94652     236450.9    264.28685 -0.071203453  0.017080537 
    3200    2721.9136    79157.267   -75691.972   -743.38082    237170.72    265.09141  0.013335643  0.017080537 
    3300    2976.5246    79236.512   -75511.995   -747.99249    237617.74    265.59105  0.027343043  0.017080537 
    3400    3360.1768    79476.513    -75376.41   -739.92601    237948.28    265.96051 -0.0073421315  0.017080537 
    3500     3305.666    79564.007   -75521.771   -736.56916     238673.7    266.77133  -0.04313877  0.017080537 
    3600    3335.2045    79615.398   -75536.628   -743.56572    239185.62    267.34352  0.011150005  0.017080537 
    3700    3637.3554    79746.488   -75374.648    -734.4845    239472.29    267.66393   0.03944947  0.017080537 
    3800    4219.8311    80113.321   -75158.448   -735.04153    239501.97     267.6971  0.028340119  0.017080537 
    3900    4006.7026    80105.054   -75364.309   -734.04246    240187.88    268.46376 -0.025598652  0.017080537 
    4000     4473.576    80400.025   -75192.731   -733.71793    240289.24    268.57705 -0.017815342  0.017080537 
    4100    4659.9842    80471.816   -75078.132   -733.69901    240627.36    268.95498  0.057391045  0.017080537 
    4200    4517.2096    80315.714   -75046.532    -751.9728    241342.46    269.75426  0.013911457  0.017080537 
    4300     5240.802    80902.512   -74913.577   -748.13365    241064.61    269.44371  0.011116953  0.017080537 
    4400    5435.3274    81032.805   -74857.482   -739.99589    241433.85    269.85642 -0.016731031  0.017080537 
    4500    5603.0883    80887.902   -74542.375   -742.43876    241812.67    270.27983  0.024205646  0.017080537 
    4600    5292.7758    80740.649   -74707.259   -740.61441    242717.19    271.29084  0.062265973  0.017080537 
    4700    5509.0251    80953.623   -74707.068    -737.5296    243046.25    271.65863   0.11278882  0.017080537 
    4800     5934.101    81202.728    -74521.08   -747.54777    243095.91    271.71414  0.017501819  0.017080537 
    4900    5820.4833    81104.704   -74540.183   -744.03726    243780.42    272.47923  0.060447289  0.017080537 
    5000    6343.3555    81511.492   -74426.349   -741.78794    243785.66    272.48509   0.05983236  0.017080537 
    5100    6599.9696    81758.411    -74401.37   -757.07124    244093.74    272.82944  0.012396178  0.017080537 
    5200    6570.4565     81549.13   -74226.374   -752.29868    244558.56    273.34898  0.082122045  0.017080537 
    5300    6621.8126      81641.2   -74269.008   -750.37995    244954.56    273.79159   0.13496915  0.017080537 
    5400    7016.7861    81972.306   -74201.602   -753.91718    245056.34    273.90536  0.030229705  0.017080537 
    5500    7487.5273    82126.258   -73887.285    -751.4466    244961.27   