LAMMPS (29 Oct 2020)
  using 12 OpenMP thread(s) per MPI task
Reading data file ...
  orthogonal box = (-709.00000 -659.00000 -772.50000) to (709.00000 659.00000 772.50000)
  4 by 4 by 8 MPI processor grid
  reading atoms ...
  300146 atoms
  reading velocities ...
  300146 velocities
  scanning bonds ...
  1 = max bonds/atom
  reading bonds ...
  298197 bonds
Finding 1-2 1-3 1-4 neighbors ...
  special bond factors lj:    0.0      0.0      0.0     
  special bond factors coul:  0.0      0.0      0.0     
     2 = max # of 1-2 neighbors
     2 = max # of 1-3 neighbors
     4 = max # of 1-4 neighbors
     6 = max # of special neighbors
  special bonds CPU = 0.046 seconds
  read_data CPU = 2.128 seconds
Setting atom values ...
  9745 settings made for charge
Setting atom values ...
  1949 settings made for charge
Setting atom values ...
  5847 settings made for charge
Setting atom values ...
  3898 settings made for charge
Finding 1-2 1-3 1-4 neighbors ...
  special bond factors lj:    0.0      1.0      1.0     
  special bond factors coul:  0.0      1.0      1.0     
     2 = max # of 1-2 neighbors
     6 = max # of special neighbors
  special bonds CPU = 0.014 seconds
Neighbor list info ...
  update every 20 steps, delay 0 steps, check yes
  max neighbors/atom: 2000, page size: 100000
  master list distance cutoff = 38
  ghost atom cutoff = 38
  binsize = 11.5, bins = 124 115 135
  1 neighbor lists, perpetual/occasional/extra = 1 0 0
  (1) pair ljlambda, perpetual
      attributes: half, newton on
      pair build: half/multi/newton
      stencil: half/multi/3d/newton
      bin: standard
Setting up Verlet run ...
  Unit style    : real
  Current step  : 0
  Time step     : 10.0
Per MPI rank memory allocation (min/avg/max) = 18.64 | 19.80 | 54.50 Mbytes
Step PotEng E_bond E_vdwl E_coul KinEng Temp Press Density 
       0   -50472.541    3507.3266   -53235.227   -744.64087    268402.57          300    8.9798637  0.017080537 
     100   -18763.966    59189.542   -77201.574   -751.93486    237353.43    265.29564   0.83828719  0.017080537 
     200   -16423.924    61985.631   -77650.966   -758.58945    235696.14    263.44323   0.57168192  0.017080537 
     300   -13716.834    64426.143    -77385.66   -757.31614    233591.08    261.09036    0.1417062  0.017080537 
     400   -11486.512    66540.224   -77282.356   -744.38095    232095.11    259.41828  -0.03924138  0.017080537 
     500    -9876.639    68011.004   -77143.753   -743.88986    231266.34    258.49194 -0.092974038  0.017080537 
     600   -8115.3852    69516.269   -76885.634   -746.01995    230296.37    257.40778  -0.13909693  0.017080537 
     700   -7063.1395    70436.313   -76750.297   -749.15542    229998.59    257.07495 -0.074752121  0.017080537 
     800   -6159.6841    71051.031   -76471.615    -739.0995    229858.14    256.91797  0.022091641  0.017080537 
     900   -5352.9746    71950.705   -76568.687   -734.99336    229891.09     256.9548 -0.038769276  0.017080537 
    1000   -4085.2286    73090.206   -76438.509   -736.92505    229387.39     256.3918 0.0054799273  0.017080537 
    1100   -3936.1719    73379.563    -76579.82   -735.91496    229871.64    256.93306  0.029356042  0.017080537 
    1200    -3223.412    74315.994   -76789.052   -750.35443    229992.85    257.06853 -0.091018413  0.017080537 
    1300   -2473.3082    74647.921   -76388.888   -732.34121    230101.31    257.18976  0.005772474  0.017080537 
    1400   -2298.6169    74939.778   -76504.958    -733.4372    230757.42    257.92311 -0.0086967448  0.017080537 
    1500   -1785.9116    75456.098    -76510.76   -731.25005    230959.44    258.14892 -0.034318511  0.017080537 
    1600   -1573.5891    75695.242     -76529.5   -739.33135    231484.08    258.73532 -0.015232531  0.017080537 
    1700   -826.54822    76253.874    -76345.07   -735.35182    231509.93    258.76421 -0.019106001  0.017080537 
    1800   -448.49938    76592.897   -76307.515     -733.882    231849.72    259.14401 -0.046206561  0.017080537 
    1900   -772.76398    76370.453   -76404.505   -738.71143    232835.79    260.24616 -0.012223867  0.017080537 
    2000   -149.35185    76810.528   -76220.588   -739.29212    232767.48     260.1698  0.037376619  0.017080537 
    2100    356.11055    77215.789   -76122.238   -737.44028    233031.77    260.46521  0.061920801  0.017080537 
    2200    226.68771    77297.123   -76327.114    -743.3218    233766.59    261.28653   0.05576931  0.017080537 
    2300    869.79038    77988.481   -76367.808   -750.88218    233787.47    261.30988 -0.012319543  0.017080537 
    2400    971.66918    77898.194   -76173.225   -753.29984    234382.32    261.97475 -0.015808689  0.017080537 
    2500    1104.3246    77943.296   -76090.987   -747.98423    234932.26    262.58943  -0.03986145  0.017080537 
    2600      1533.29     78337.22    -76050.53   -753.40027     235287.8    262.98683  0.022419091  0.017080537 
    2700    1926.5719    78646.733   -75974.583   -745.57836    235542.59    263.27161 -0.038669519  0.017080537 
    2800    2045.4837    78859.313    -76070.41   -743.41868    236087.39    263.88055 -0.020258589  0.017080537 
    2900    2277.2433    78892.193   -75871.313    -743.6362    236644.62    264.50337  0.071378854  0.017080537 
    3000    2745.4891     79259.07   -75784.721   -728.85993    236894.86    264.78308  0.081249066  0.017080537 
    3100    2989.5181    79450.923   -75717.989   -743.41569    237260.31    265.19155  0.045409382  0.017080537 
    3200    2962.7108    79378.898   -75680.517   -735.66996    237977.54    265.99321  0.026322341  0.017080537 
    3300     2873.463    79368.783   -75752.391   -742.92912    238601.67    266.69082  0.019709569  0.017080537 
    3400    3508.7238    79809.042   -75556.838   -743.48054    238587.51    266.67499  0.052766262  0.017080537 
    3500    3567.2464    79937.861   -75630.537   -740.07808    239146.93    267.30027  0.011459186  0.017080537 
    3600    3834.0991    80124.654    -75543.73   -746.82479    239583.92     267.7887 -0.026198811  0.017080537 
    3700    4139.5984    80276.935   -75385.884   -751.45292    239980.92    268.23244  0.030841341  0.017080537 
    3800    4550.5415    80509.312   -75208.964   -749.80681    240169.61    268.44334 0.0027366456  0.017080537 
    3900    4933.3327    80761.209    -75068.68   -759.19581    240383.17    268.68204 -0.021268744  0.017080537 
    4000    4709.4634     80706.63   -75240.338   -756.82797     241144.8    269.53334 -0.0067893658  0.017080537 
    4100    5190.2502     80859.88   -74909.004   -760.62555    241105.49     269.4894  0.060875925  0.017080537 
    4200    4945.8145    80760.788   -75060.707   -754.26602    241951.36    270.43484  0.078764019  0.017080537 
    4300    5366.7887    81254.855   -75135.887   -752.17885    242260.79    270.78071  0.024684249  0.017080537 
    4400    5028.8283    80794.823   -75016.809    -749.1856    243153.17    271.77814  0.022124055  0.017080537 
    4500     5587.404    81245.514   -74901.266   -756.84384    243017.28    271.62625  0.084976055  0.017080537 
    4600    5841.4925    81470.779    -74876.94   -752.34643    243263.62    271.90159  0.035538742  0.017080537 
    4700    6202.8076    81897.776    -74940.82   -754.14911    243484.55    272.14853 -0.023066596  0.017080537 
    4800     6226.966     81813.06   -74846.103   -739.99049    244010.35    272.73623  0.066840493  0.017080537 
    4900    6504.2311    81695.325   -74445.488   -745.60584    244135.49     272.8761   0.10547649  0.017080537 
    5000    6812.4266    82162.089   -74601.929   -747.73293     244375.4    273.14425  -0.01316116  0.017080537 
    5100    6774.1644    81968.283    -74450.14   -743.97788    244877.19    273.70512   0.11881369  0.017080537 
    5200    7024.8016    82295.523   -74521.934    -748.7872    245054.34    273.90313 0.0056983552  0.017080537 
    5300    7160.5859    82284.273   -74367.356   -756.33112    245338.43    274.22066  0.038857344  0.017080537 
    5400     7644.398    82540.846   -74135.541   -760.90712    245381.65    274.26897  0.052024235  0.017080537 
    5500    7630.6572    82402.473   -74013.714   -758.10182    245841.93    274.78343  0.066621725  0.017080537 
    5600    7616.1976     82465.37   -74096.223   -752.94905    246236.07    275.22397   0.03419248  0.017080537 
    5700    7948.5683    82648.877   -73943.613    -756.6954    246354.44    275.35628  0.055344608  0.017080537 
    5800    7980.0488    82499.656   -73759.227   -760.37975    246765.85    275.81612   0.04553729  0.017080537 
    5900    8522.0752    83042.059   -73761.155   -758.82943    246741.49    275.78889 -0.058894053  0.017080537 
    6000    8920.5844    83237.716   -73559.036   -758.09541    246780.33     275.8323  0.029973724  0.017080537 
    6100    8699.1393     82954.61   -73491.141   -764.32997    247413.36    276.53985  0.062280102  0.017080537 
    6200    8854.4757    83054.678   -73444.622     -755.581    247626.09    276.77763  0.022853147  0.017080537 
    6300    8754.1807    82919.471   -73404.947   -760.34359    248036.48    277.23633  0.056236401  0.017080537 
    6400    8985.5413    83002.942    -73258.65   -758.75114    248326.58    277.56058    0.1156711  0.017080537 
    6500    9705.6076    83586.349    -73122.96   -757.78062    248079.77    277.28472  0.074020252  0.017080537 
    6600    9898.7068    83716.475   -73057.696   -760.07206    248332.74    277.56747  0.042921021  0.017080537 
    6700     9587.804    83494.462    -73149.59   -757.06752    248993.06    278.30553  0.064794695  0.017080537 
    6800    9975.4804    83732.204   -73011.559   -745.16454    249101.19    278.42639 0.0084619984  0.017080537 
    6900    9845.5155    83740.668   -73143.633   -751.51887    249608.38    278.99329  0.065422036  0.017080537 
    7000    10411.184     83924.66   -72776.387   -737.08883    249314.33    278.66461    0.1101573  0.017080537 
    7100    10509.668    84174.489   -72916.674   -748.14676    249663.66    279.05507 -0.0023013605  0.017080537 
    7200    10168.566    83631.138   -72718.966   -743.60623    250363.23      279.837  0.055709581  0.017080537 
    7300    10599.841    84118.815   -72774.716   -744.25803    250210.41    279.66618 -0.0030957064  0.017080537 
    7400    10336.051    83786.866   -72705.193   -745.62184    250854.38    280.38596  0.076311436  0.017080537 
    7500    11297.191     84633.85   -72592.358   -744.30117    250284.82    279.74935 0.0014107003  0.017080537 
    7600    11058.238    84296.054   -72478.683   -759.13279    250888.32     280.4239  0.026672444  0.017080537 
    7700    11168.496    84306.039   -72382.111   -755.43167    251026.69    280.57856   0.10526328  0.017080537 
    7800    11338.082     84513.29   -72417.193   -758.01581    251179.89    280.74979    0.0422357  0.017080537 
    7900    11407.203    84486.805   -72320.104   -759.49753    251338.67    280.92727  0.045047117  0.017080537 
    8000    11480.315    84623.425    -72379.05    -764.0604    251465.24    281.06875  0.016199818  0.017080537 
    8100    11862.833    84723.094   -72091.585   -768.67668    251383.63    280.97752  0.025927988  0.017080537 
    8200    11915.167    84860.139   -72188.508   -756.46364    251528.57    281.13952 0.0044130693  0.017080537 
    8300    12060.145    84718.712   -71898.789   -759.77755     251680.2    281.30901  0.076767814  0.017080537 
    8400     11923.64    84826.922   -72140.538   -762.74337    252153.36    281.83787  0.037194116  0.017080537 
    8500    12352.379    85015.074   -71899.203    -763.4916    252104.91    281.78371  0.064463393  0.017080537 
    8600    12119.169    84952.417   -72070.746    -762.5021    252718.19    282.46919  0.064239459  0.017080537 
    8700    12112.678    84768.795   -71884.734   -771.38335    252980.95    282.76288  0.096477997  0.017080537 
    8800     12281.37    84896.612   -71852.612   -762.63045    253077.89    282.87124   0.18031629  0.017080537 
    8900    12598.249    85132.789   -71776.136   -758.40451    253071.49    282.86408   0.05274752  0.017080537 
    9000    12609.146    85086.399   -71720.482   -756.77084    253393.49    283.22399  0.037157561  0.017080537 
    9100    12806.817    85382.536   -71815.409   -760.31015     253490.4    283.33231 -0.014571338  0.017080537 
    9200    13215.686    85433.177   -71450.664   -766.82706    253221.54     283.0318  0.043324976  0.017080537 
    9300    12695.596    85257.564   -71795.447   -766.52131    253987.58    283.88802  0.032082095  0.017080537 
    9400    13028.547    85198.285   -71411.037   -758.70091    254019.36    283.92355  0.050926551  0.017080537 
    9500    13497.549    85472.855   -71216.643    -758.6626    253847.89    283.73189  0.014541832  0.017080537 
    9600    13580.757    85525.875    -71184.81   -760.30755    254124.82    284.04141  0.020795622  0.017080537 
    9700    13640.745    85679.378   -71272.101   -766.53183    254416.94    284.36793  0.076590372  0.017080537 
    9800    14085.345    85839.037       -70999   -754.69292    254288.92    284.22483   0.10160512  0.017080537 
    9900    13680.721    85533.501   -71100.422   -752.35817     255007.4     285.0279  0.066608886  0.017080537 
   10000    13883.495    85564.042   -70918.864   -761.68373    255158.41    285.19668    0.0559414  0.017080537 
Loop time of 140.412 on 1536 procs for 10000 steps with 300146 atoms

Performance: 61.533 ns/day, 0.390 hours/ns, 71.219 timesteps/s
699.1% CPU use with 128 MPI tasks x 12 OpenMP threads

MPI task timing breakdown:
Section |  min time  |  avg time  |  max time  |%varavg| %total
---------------------------------------------------------------
Pair    | 53.151     | 83.554     | 113.47     | 131.1 | 59.51
Bond    | 1.5929     | 1.7849     | 1.916      |   5.0 |  1.27
Neigh   | 12.719     | 12.809     | 12.929     |   1.2 |  9.12
Comm    | 4.7104     | 34.236     | 66.089     | 210.1 | 24.38
Output  | 0.012406   | 0.03987    | 0.18153    |  18.7 |  0.03
Modify  | 3.1149     | 4.9545     | 14.053     | 107.1 |  3.53
Other   |            | 3.034      |            |       |  2.16

Nlocal:        2344.89 ave        2347 max        2342 min
Histogram: 1 0 16 0 32 0 33 0 39 7
Nghost:        7243.08 ave       12157 max        2939 min
Histogram: 1 1 19 26 33 26 10 4 4 4
Neighs:       154104.0 ave      203337 max       97210 min
Histogram: 3 4 11 14 21 20 26 20 6 3

Total # of neighbors = 19725276
Ave neighs/atom = 65.718937
Ave special neighs/atom = 1.9870130
Neighbor list builds = 500
Dangerous builds = 490

Please see the log.cite file for references relevant to this simulation

Total wall time: 0:02:22
