LAMMPS (29 Oct 2020)
  using 12 OpenMP thread(s) per MPI task
Reading data file ...
  orthogonal box = (-709.00000 -659.00000 -772.50000) to (709.00000 659.00000 772.50000)
  4 by 4 by 8 MPI processor grid
  reading atoms ...
  300146 atoms
  reading velocities ...
  300146 velocities
  scanning bonds ...
  1 = max bonds/atom
  reading bonds ...
  298197 bonds
Finding 1-2 1-3 1-4 neighbors ...
  special bond factors lj:    0.0      0.0      0.0     
  special bond factors coul:  0.0      0.0      0.0     
     2 = max # of 1-2 neighbors
     2 = max # of 1-3 neighbors
     4 = max # of 1-4 neighbors
     6 = max # of special neighbors
  special bonds CPU = 0.043 seconds
  read_data CPU = 2.103 seconds
Setting atom values ...
  9745 settings made for charge
Setting atom values ...
  1949 settings made for charge
Setting atom values ...
  5847 settings made for charge
Setting atom values ...
  3898 settings made for charge
Finding 1-2 1-3 1-4 neighbors ...
  special bond factors lj:    0.0      1.0      1.0     
  special bond factors coul:  0.0      1.0      1.0     
     2 = max # of 1-2 neighbors
     6 = max # of special neighbors
  special bonds CPU = 0.014 seconds
Neighbor list info ...
  update every 20 steps, delay 0 steps, check yes
  max neighbors/atom: 2000, page size: 100000
  master list distance cutoff = 38
  ghost atom cutoff = 38
  binsize = 11.5, bins = 124 115 135
  1 neighbor lists, perpetual/occasional/extra = 1 0 0
  (1) pair ljlambda, perpetual
      attributes: half, newton on
      pair build: half/multi/newton
      stencil: half/multi/3d/newton
      bin: standard
Setting up Verlet run ...
  Unit style    : real
  Current step  : 0
  Time step     : 10.0
Per MPI rank memory allocation (min/avg/max) = 18.64 | 19.80 | 54.50 Mbytes
Step PotEng E_bond E_vdwl E_coul KinEng Temp Press Density 
       0   -50472.541    3507.3266   -53235.227   -744.64087    268402.57          300    8.9798637  0.017080537 
     100   -18762.008    59189.032   -77199.097   -751.94287    237338.64     265.2791   0.83843669  0.017080537 
     200    -16425.69     61962.26   -77629.799   -758.15101    235701.81    263.44957   0.57399226  0.017080537 
     300   -13779.763    64446.422   -77469.216   -756.96873    233735.54    261.25183   0.13190764  0.017080537 
     400   -11310.657    66617.253   -77184.868   -743.04254    231997.14    259.30878 -0.011169153  0.017080537 
     500   -9614.4669     68137.65    -77006.49   -745.62635    231052.81    258.25328  -0.12973092  0.017080537 
     600   -8217.8123    69229.014   -76699.847   -746.97977    230447.42    257.57661  -0.10649802  0.017080537 
     700   -6701.5143    70646.859   -76603.063   -745.31055    229617.73    256.64925  -0.10769934  0.017080537 
     800   -6024.6895    71165.273   -76442.767   -747.19622    229632.11    256.66532 -0.038006592  0.017080537 
     900   -5011.5027    72258.733   -76518.789   -751.44685    229459.36    256.47224 -0.087827847  0.017080537 
    1000   -4182.4034    72992.572   -76435.814   -739.16166    229401.83    256.40793 -0.084269547  0.017080537 
    1100   -3639.4281    73514.178   -76411.431   -742.17435    229572.81    256.59905 -0.087469315  0.017080537 
    1200   -3292.1553    74116.294    -76664.51   -743.93897    230065.69    257.14995 -0.054148523  0.017080537 
    1300    -2510.081    74713.638   -76478.851   -744.86787    230123.79    257.21489 -0.048733381  0.017080537 
    1400     -2030.97    75528.767   -76809.547   -750.19019    230434.98    257.56271 -0.039885452  0.017080537 
    1500   -1559.0989    75621.784   -76433.186    -747.6971    230726.06    257.88806 0.0038672408  0.017080537 
    1600    -1201.342    76091.055   -76543.605   -748.79273    230973.05    258.16413   -0.0276532  0.017080537 
    1700   -1157.5562    76111.421   -76526.366   -742.61161    231751.28    259.03397 -0.0091819597  0.017080537 
    1800   -754.76031    76449.853   -76460.153     -744.461    232194.16    259.52899  0.048883065  0.017080537 
    1900   -504.31389    76615.669   -76366.806   -753.17668     232624.3    260.00977 -0.014852731  0.017080537 
    2000   -367.76673    76688.283    -76309.75    -746.2996    233190.85    260.64301  0.014098898  0.017080537 
    2100   -42.873014    77054.489   -76346.674   -750.68809    233541.66    261.03513  0.031195077  0.017080537 
    2200    38.111301    77109.355   -76332.431   -738.81302    234034.89    261.58642 -0.014263226  0.017080537 
    2300    505.93724    77515.638   -76260.722    -748.9792    234122.57    261.68442  0.014102135  0.017080537 
    2400     782.0268    77842.071   -76308.847   -751.19719    234465.13    262.06731 -0.045020336  0.017080537 
    2500    933.40763    77921.041   -76236.653   -750.98099    234945.73    262.60449  -0.00957741  0.017080537 
    2600    1189.9826    78223.169   -76274.114   -759.07222    235320.12    263.02295  -0.04318501  0.017080537 
    2700    1936.1251    78499.284   -75818.894   -744.26461    235216.42    262.90704  0.042906748  0.017080537 
    2800    1944.0729     78693.31   -76005.392   -743.84572     236099.6     263.8942 -0.026262103  0.017080537 
    2900    1979.9896    78500.615   -75773.455   -747.17039    236746.09     264.6168  0.017839667  0.017080537 
    3000    2189.4743    78758.535    -75817.18   -751.88061    237215.65    265.14163 -0.030271402  0.017080537 
    3100    2574.4466    79223.307   -75886.421    -762.4398    237349.72    265.29148 -0.049359146  0.017080537 
    3200    3039.6798    79463.558   -75671.717   -752.16116    237539.81    265.50395 -0.038123952  0.017080537 
    3300    3048.9815    79277.924   -75484.015   -744.92753    238121.45    266.15407  0.043193728  0.017080537 
    3400    3189.8514    79476.685    -75556.28   -730.55299     238727.4    266.83135 -0.030906192  0.017080537 
    3500    3708.7634    79898.331   -75451.804   -737.76375     238930.2    267.05802   -0.0172288  0.017080537 
    3600    3856.5463     79796.73   -75205.939   -734.24447    239420.67    267.60623  0.065476695  0.017080537 
    3700    4135.8662    80287.894   -75399.144   -752.88385     239665.7    267.88011 -0.011980865  0.017080537 
    3800    4363.3101    80250.498   -75137.908   -749.28013    240107.16    268.37354  0.030773239  0.017080537 
    3900    4663.5033    80378.969    -74959.37   -756.09526    240384.93    268.68401   0.02754892  0.017080537 
    4000    4770.8883     80304.14   -74780.818   -752.43348     240890.2    269.24876  0.025965589  0.017080537 
    4100    4759.7776    80493.689   -74977.165   -756.74674    241400.99    269.81969 -0.027053435  0.017080537 
    4200    5189.5033    80509.528   -74561.904   -758.12025    241559.82    269.99721  0.015942079  0.017080537 
    4300    5633.0601    81037.529   -74649.715   -754.75426    241615.78    270.05976 -0.027702685  0.017080537 
    4400    5848.5041    81227.697   -74616.495   -762.69859    241962.65    270.44747  0.022247188  0.017080537 
    4500    5734.1826    81173.895   -74679.654   -760.05848    242620.54     271.1828  0.032778536  0.017080537 
    4600    6141.9934     81377.48   -74475.586   -759.90003    242653.08    271.21917  0.037573291  0.017080537 
    4700    6125.5441    81222.393   -74344.452   -752.39683    243142.07    271.76573  0.071841131  0.017080537 
    4800    6482.2759     81565.72   -74322.728   -760.71661    243212.34    271.84428  0.052727491  0.017080537 
    4900    6818.6857    81629.829   -74050.266   -760.87669    243463.88    272.12543  0.075618647  0.017080537 
    5000    6633.2858    81438.218   -74053.661   -751.27174    244170.61    272.91536  0.044569223  0.017080537 
    5100     6829.208    81589.928   -73996.109   -764.61043    244352.82    273.11902  0.020789027  0.017080537 
    5200    6932.6475    81837.457   -74142.069   -762.74084    244711.64    273.52008  0.009234437  0.017080537 
    5300    7165.2001    81908.201    -73984.44   -758.56041     245089.9    273.94287  0.039683271  0.017080537 
    5400    7423.3478    82111.906   -73937.685   -750.87364    245380.95    274.26819  0.097782723  0.017080537 
    5500    7624.5653     82342.13   -73959.482   -758.08204    245690.25    274.61389  0.052042538  0.017080537 
    5600    8067.7719    82731.085   -73909.287   -754.02556     245759.3    274.69107   0.01554014  0.017080537 
    5700    8136.1717    82680.699   -73785.042   -759.48455    246323.59    275.32179  0.033792061  0.017080537 
    5800     8152.613    82799.435   -73893.988   -752.83479    246617.72    275.65055 0.0076522376  0.017080537 
    5900    8392.4103    82771.786   -73620.973   -758.40292    246865.99    275.92804  0.056886794  0.017080537 
    6000    8270.6733    82754.642   -73729.181   -754.78771    247467.64    276.60052  0.091843543  0.017080537 
    6100    8554.6786    82871.666   -73557.535   -759.45208    247637.47    276.79035  0.057040906  0.017080537 
    6200    8805.7823    82866.964   -73303.078   -758.10327    247955.59    277.14592   0.12766145  0.017080537 
    6300    9027.3572    83309.643   -73516.165   -766.12094    248133.81    277.34512  0.021212907  0.017080537 
    6400    9529.1086     83519.05   -73235.549   -754.39321    248004.35    277.20042  0.026873073  0.017080537 
    6500    9111.2002    83110.252   -73248.691   -750.36097    248782.47    278.07014 -0.047029092  0.017080537 
    6600    9904.3158    83752.999   -73097.234   -751.44981    248329.45    277.56379  0.037644595  0.017080537 
    6700    9847.8303    83657.815   -73064.619   -745.36546    248745.59    278.02893 -0.0034378738  0.017080537 
    6800      10058.7    83785.987   -72990.414   -736.87285    248895.84    278.19686  0.063887087  0.017080537 
    6900    9994.8007    83673.734   -72932.914   -746.02017    249208.33    278.54614   0.04962662  0.017080537 
    7000    10260.224    83843.528   -72828.111   -755.19252    249245.48    278.58766   0.01769662  0.017080537 
    7100    10195.984    83828.104   -72883.156   -748.96445    249710.97    279.10795  0.042073478  0.017080537 
    7200    10148.306    83747.924   -72847.199   -752.41869    250212.35    279.66835  0.045911296  0.017080537 
    7300     10482.32    84044.503   -72805.676    -756.5073    250255.21    279.71626  0.060770382  0.017080537 
    7400    10710.512    84017.312   -72545.705   -761.09541    250403.62    279.88214  0.087668212  0.017080537 
    7500    10777.027    84227.692   -72690.279   -760.38572    250678.31    280.18917  0.052945211  0.017080537 
    7600    11210.813    84382.171   -72417.926   -753.43259     250572.5     280.0709   0.10345566  0.017080537 
    7700    11179.662    84463.908   -72516.568    -767.6787    250876.95     280.4112  0.042454768  0.017080537 
    7800    11491.938    84372.771   -72117.265   -763.56748     250984.1    280.53096  0.064563685  0.017080537 
    7900    11088.775    84219.658   -72374.993   -755.89003     251780.5    281.42111   0.09413582  0.017080537 
    8000    11776.973    84591.781   -72060.554   -754.25375    251459.03     281.0618  0.017541628  0.017080537 
    8100    11462.852    84375.242   -72152.877   -759.51308    252209.84      281.901  0.064722934  0.017080537 
    8200     11829.55    84748.379   -72167.002   -751.82656    252237.41    281.93181  0.082264559  0.017080537 
    8300    11735.315     84681.46   -72186.503   -759.64216     252614.1    282.35285  0.070628264  0.017080537 
    8400    12159.133     84872.38   -71964.751   -748.49601    252547.36    282.27825 -0.006487485  0.017080537 
    8500     12290.01    84827.371   -71778.442   -758.91849    252762.22     282.5184  0.060175619  0.017080537 
    8600    12620.123    85159.741   -71771.946   -767.67284    252571.27    282.30497  0.042277139  0.017080537 
    8700    12340.824    84873.605   -71770.739   -762.04275     253163.9    282.96738  0.044056948  0.017080537 
    8800    12395.277    84867.834   -71719.052   -753.50451    253423.21    283.25721  0.038139414  0.017080537 
    8900    12626.102    84993.454   -71603.354   -763.99779    253444.19    283.28066  0.060419903  0.017080537 
    9000     13024.59    85434.562   -71645.378   -764.59391    253221.82    283.03211  0.072313528  0.017080537 
    9100    12845.852     85341.77   -71738.725   -757.19275    253651.79     283.5127  0.091751357  0.017080537 
    9200     13248.77    85499.136   -71494.317   -756.04888    253426.53    283.26092  0.070564617  0.017080537 
    9300    13079.328    85276.325   -71449.199   -747.79708    253986.54    283.88685  0.076493166  0.017080537 
    9400    12935.469    85122.478     -71424.9   -762.10887    254456.72    284.41239  0.087785395  0.017080537 
    9500    13359.919    85330.806   -71209.523   -761.36422    254316.59    284.25576  0.036637876  0.017080537 
    9600    13434.936    85456.739   -71262.046   -759.75686     254572.7    284.54202  0.010091979  0.017080537 
    9700    13795.477    85684.252   -71135.367   -753.40781    254615.25    284.58958  0.020303361  0.017080537 
    9800     13941.62    85565.054   -70871.594   -751.83991    254683.18     284.6655  0.053491762  0.017080537 
    9900    14139.729    85630.366   -70729.604   -761.03323    254784.47    284.77872  0.072918983  0.017080537 
   10000    14100.816    85513.226   -70651.307   -761.10316    255118.73    285.15233  0.063377393  0.017080537 
Loop time of 136.617 on 1536 procs for 10000 steps with 300146 atoms

Performance: 63.242 ns/day, 0.379 hours/ns, 73.197 timesteps/s
717.2% CPU use with 128 MPI tasks x 12 OpenMP threads

MPI task timing breakdown:
Section |  min time  |  avg time  |  max time  |%varavg| %total
---------------------------------------------------------------
Pair    | 49.779     | 82.449     | 108.55     | 130.1 | 60.35
Bond    | 1.546      | 1.7635     | 1.8948     |   6.2 |  1.29
Neigh   | 12.401     | 12.499     | 12.623     |   1.4 |  9.15
Comm    | 4.7691     | 31.91      | 64.45      | 212.7 | 23.36
Output  | 0.012076   | 0.038616   | 0.11234    |  10.1 |  0.03
Modify  | 3.0729     | 4.9258     | 9.6547     |  59.8 |  3.61
Other   |            | 3.031      |            |       |  2.22

Nlocal:        2344.89 ave        2348 max        2342 min
Histogram: 1 17 0 34 0 38 23 0 11 4
Nghost:        7221.37 ave       12311 max        2884 min
Histogram: 1 1 18 30 35 22 11 3 3 4
Neighs:       153439.0 ave      200274 max       96764 min
Histogram: 2 5 10 17 13 30 20 16 8 7

Total # of neighbors = 19640188
Ave neighs/atom = 65.435448
Ave special neighs/atom = 1.9870130
Neighbor list builds = 500
Dangerous builds = 490

Please see the log.cite file for references relevant to this simulation

Total wall time: 0:02:19
