LAMMPS (29 Oct 2020)
  using 12 OpenMP thread(s) per MPI task
Reading data file ...
  orthogonal box = (-709.00000 -659.00000 -772.50000) to (709.00000 659.00000 772.50000)
  8 by 8 by 16 MPI processor grid
  reading atoms ...
  300146 atoms
  reading velocities ...
  300146 velocities
  scanning bonds ...
  1 = max bonds/atom
  reading bonds ...
  298197 bonds
Finding 1-2 1-3 1-4 neighbors ...
  special bond factors lj:    0.0      0.0      0.0     
  special bond factors coul:  0.0      0.0      0.0     
     2 = max # of 1-2 neighbors
     2 = max # of 1-3 neighbors
     4 = max # of 1-4 neighbors
     6 = max # of special neighbors
  special bonds CPU = 0.052 seconds
  read_data CPU = 2.075 seconds
Setting atom values ...
  9745 settings made for charge
Setting atom values ...
  1949 settings made for charge
Setting atom values ...
  5847 settings made for charge
Setting atom values ...
  3898 settings made for charge
Finding 1-2 1-3 1-4 neighbors ...
  special bond factors lj:    0.0      1.0      1.0     
  special bond factors coul:  0.0      1.0      1.0     
     2 = max # of 1-2 neighbors
     6 = max # of special neighbors
  special bonds CPU = 0.012 seconds
Neighbor list info ...
  update every 20 steps, delay 0 steps, check yes
  max neighbors/atom: 2000, page size: 100000
  master list distance cutoff = 38
  ghost atom cutoff = 38
  binsize = 11.5, bins = 124 115 135
  1 neighbor lists, perpetual/occasional/extra = 1 0 0
  (1) pair ljlambda, perpetual
      attributes: half, newton on
      pair build: half/multi/newton
      stencil: half/multi/3d/newton
      bin: standard
Setting up Verlet run ...
  Unit style    : real
  Current step  : 0
  Time step     : 10.0
Per MPI rank memory allocation (min/avg/max) = 17.56 | 17.68 | 20.04 Mbytes
Step PotEng E_bond E_vdwl E_coul KinEng Temp Press Density 
       0   -50472.541    3507.3266   -53235.227   -744.64087    268402.57          300    8.9798637  0.017080537 
     100   -18720.453    59199.348   -77167.748   -752.05293    237365.51    265.30914   0.83985417  0.017080537 
     200    -16382.01    61978.864   -77604.979   -755.89467    235676.49    263.42128   0.57931822  0.017080537 
     300   -13526.098    64586.395   -77354.381   -758.11268    233469.18    260.95411   0.17012796  0.017080537 
     400   -11390.539    66614.526   -77264.385   -740.67946    232066.36    259.38615 -0.017813522  0.017080537 
     500   -9536.6211    68198.324   -76989.141   -745.80398    230914.27    258.09843 -0.046263532  0.017080537 
     600   -8232.8458    69423.668   -76901.817   -754.69741    230521.55    257.65947 -0.059214566  0.017080537 
     700   -6807.1019    70601.274   -76661.809   -746.56747    229852.08     256.9112 -0.033881189  0.017080537 
     800   -5545.0391    71829.883   -76626.664   -748.25827    229290.68     256.2837 -0.073507908  0.017080537 
     900   -5030.7754    72244.296   -76529.084    -745.9877    229618.24    256.64983  -0.05364217  0.017080537 
    1000   -4158.5999    72989.809   -76399.356   -749.05278    229536.93    256.55894  0.072140521  0.017080537 
    1100   -3379.7672    73702.836    -76330.78   -751.82321    229603.17    256.63298  0.012606282  0.017080537 
    1200   -3107.5248    74035.333   -76392.728   -750.12924    230079.89    257.16582 -0.017788074  0.017080537 
    1300   -2450.0799    74628.172   -76327.564   -750.68847    230242.33    257.34738 -0.0054092517  0.017080537 
    1400    -2248.991    75025.091   -76522.207   -751.87567    230726.48    257.88853 -0.018452891  0.017080537 
    1500   -1659.3762    75466.226   -76383.814    -741.7881    230930.36    258.11641 -0.016428526  0.017080537 
    1600   -1376.5598    75721.829   -76356.477   -741.91152    231333.24    258.56672  0.024410799  0.017080537 
    1700   -823.86805    76170.023    -76253.74   -740.15081    231480.57    258.73139  0.041969825  0.017080537 
    1800   -558.84726    76443.699   -76260.652   -741.89402    232017.17    259.33116  0.048819172  0.017080537 
    1900   -331.30758    76774.604   -76359.353   -746.55863     232540.6    259.91621 0.0024954619  0.017080537 
    2000   -84.709061    76869.897   -76205.592   -749.01479     233061.8    260.49877  0.055966652  0.017080537 
    2100    24.125072    76993.868   -76222.705   -747.03823     233601.8    261.10234  0.045514254  0.017080537 
    2200     467.2484    77435.735   -76220.274   -748.21286    233753.97    261.27243 -0.014860348  0.017080537 
    2300    930.87808    77658.188   -75976.598   -750.71185    233967.47    261.51106 0.0067637216  0.017080537 
    2400    1004.1156    77864.687   -76111.258   -749.31373    234495.95    262.10176 -0.0017500258  0.017080537 
    2500    1417.7179      78066.9   -75903.045   -746.13736    234735.83    262.36987 -0.049975613  0.017080537 
    2600     1401.732    78073.427   -75934.977    -736.7182    235365.11    263.07324  0.043949619  0.017080537 
    2700    1770.2742     78402.64   -75879.316   -753.05002    235700.63    263.44825 0.0051045714  0.017080537 
    2800    2261.9228    78600.197    -75593.53   -744.74465       235718    263.46767  0.017463805  0.017080537 
    2900    2316.4806     78721.15   -75663.074   -741.59532    236214.44    264.02256  0.015057381  0.017080537 
    3000    2623.2147    78867.948   -75511.166   -733.56771    236486.76    264.32693  0.029028578  0.017080537 
    3100    2355.8321    78715.393   -75617.946   -741.61504    237418.82    265.36872  0.013919608  0.017080537 
    3200    2915.1448    79286.787   -75632.212   -739.43068    237415.15    265.36462 -0.081564206  0.017080537 
    3300    3469.1226    79453.684   -75246.562   -737.99981    237512.59    265.47353 -0.026826687  0.017080537 
    3400    3251.6886    79462.302   -75473.853   -736.76021    238303.07    266.35707 -0.063507551  0.017080537 
    3500    3867.3525    79869.129   -75260.004   -741.77281    238269.53    266.31958 -0.012456254  0.017080537 
    3600    3744.7185    79804.885   -75310.356   -749.81072    239022.29    267.16096  0.075867771  0.017080537 
    3700    3953.5615    80075.606   -75373.851   -748.19385    239429.93    267.61659 0.0032349867  0.017080537 
    3800    4283.6245     80136.57   -75114.312   -738.63288    239734.61    267.95713  0.031075839  0.017080537 
    3900    4128.0639    80140.298   -75267.124   -745.11051    240497.59    268.80993  0.046933294  0.017080537 
    4000    4499.4461    80384.413    -75130.15   -754.81676    240738.74    269.07947   0.03946847  0.017080537 
    4100     4756.292    80636.458   -75126.805   -753.36102    241030.36    269.40543 -0.022355773  0.017080537 
    4200    4695.7547    80493.867   -75043.617   -754.49568    241680.83    270.13247   0.06285858  0.017080537 
    4300    4737.9764    80528.638   -75038.135   -752.52634    242322.28    270.84943  0.074416885  0.017080537 
    4400    5393.0371    80801.622   -74661.614   -746.97029    242136.53    270.64182   0.12509121  0.017080537 
    4500    5482.1224    81057.246   -74828.229   -746.89481    242492.22    271.03938   0.08780335  0.017080537 
    4600    5426.6868    80883.158   -74706.338   -750.13284    243106.36    271.72582  0.099954754  0.017080537 
    4700    6148.2279     81508.83   -74612.885   -747.71761    242775.06    271.35552  0.056973006  0.017080537 
    4800    6236.9222    81516.338   -74534.248   -745.16756    243150.48    271.77513  0.016035833  0.017080537 
    4900    6409.8669    81612.187   -74460.503   -741.81703    243380.95    272.03274 -0.029813333  0.017080537 
    5000    6564.2692    81716.313   -74411.518   -740.52611    243647.26     272.3304  0.045320191  0.017080537 
    5100    6800.8143    81771.602   -74232.405   -738.38205    243848.39    272.55521  0.047903244  0.017080537 
    5200    6859.6427    81811.066   -74207.345   -744.07831    244289.67    273.04844  0.072166174  0.017080537 
    5300    6979.4382    81991.199   -74268.681    -743.0798    244560.65    273.35131 -0.011043443  0.017080537 
    5400       7151.7     82119.39   -74216.837   -750.85333    244799.48    273.61826  0.032400893  0.017080537 
    5500    7221.5566    82191.248   -74222.541   -747.15103    245203.57    274.06992  0.037024757  0.017080537 
    5600    7255.1093    82170.749   -74173.279   -742.36093    245649.67    274.56853 0.0055586032  0.017080537 
    5700    7524.1707    82262.062   -73989.301   -748.59083    245899.56    274.84785   0.10134257  0.017080537 
    5800     7751.549    82397.694   -73901.489    -744.6565    246114.82    275.08844  0.037141827  0.017080537 
    5900    7698.5635    82422.331   -73970.894   -752.87444    246581.83    275.61043 -0.0012872975  0.017080537 
    6000    8086.2486    82583.631   -73747.207   -750.17584    246693.84    275.73563  0.067009644  0.017080537 
    6100    8228.6006    82713.531   -73739.311   -745.61959    246962.63    276.03607  0.083227581  0.017080537 
    6200    8455.2336    82877.809   -73680.705   -741.87024    247168.12    276.26575  0.064073593  0.017080537 
    6300    8352.3074    82715.262   -73624.857   -738.09734    247778.73    276.94824  0.052543623  0.017080537 
    6400    8996.2245    83076.874   -73333.187   -747.46294    247609.24    276.75879  0.091138806  0.017080537 
    6500    8930.3804    83113.619   -73443.623    -739.6155    248068.06    277.27163  0.015331897  0.017080537 
    6600    9199.3956    83239.966   -73304.551   -736.01992    248339.78    277.57534   0.11416094  0.017080537 
    6700     9289.013    83167.011   -73141.651   -736.34633    248619.67    277.88818  0.081652347  0.017080537 
    6800    9557.2103    83537.789   -73235.659   -744.92009     248614.5     277.8824 -0.029228972  0.017080537 
    6900    9315.0596    83156.481   -73107.927   -733.49491    249248.93    278.59151 0.0013157094  0.017080537 
    7000    9839.3104     83671.45   -73087.976   -744.16364    249037.07    278.35472  0.080233048  0.017080537 
    7100    9599.7949    83413.319   -73062.419    -751.1059    249653.43    279.04363 -0.013459057  0.017080537 
    7200    10104.182    83583.305    -72719.86   -759.26279    249477.82    278.84735  0.073795799  0.017080537 
    7300     10274.41    83873.981   -72845.464   -754.10704    249635.97    279.02412  0.071869192  0.017080537 
    7400    10042.765    83480.185   -72683.108   -754.31191    250217.74    279.67438  0.048370975  0.017080537 
    7500    10248.412    83723.736   -72717.182   -758.14156    250230.31    279.68843  0.046751491  0.017080537 
    7600    10571.142    83846.878   -72523.371   -752.36508    250237.53     279.6965  0.020747198  0.017080537 
    7700    10495.661    83848.854    -72595.26   -757.93284    250557.41    280.05404  0.086039503  0.017080537 
    7800    10700.975     83965.96   -72503.791   -761.19431    250731.12     280.2482  0.012233316  0.017080537 
    7900    11189.528    84253.409   -72298.641   -765.23905     250595.2    280.09628  0.074656283  0.017080537 
    8000    11407.059    84625.751   -72459.676   -759.01585    250754.32    280.27412  0.020593874  0.017080537 
    8100    11425.804    84397.532   -72209.683   -762.04492    251031.26    280.58367  0.038743551  0.017080537 
    8200    11094.811    84130.465   -72276.816   -758.83779    251707.31    281.33931  0.073201985  0.017080537 
    8300    11595.769    84411.363   -72057.042   -758.55212    251602.68    281.22236 0.0023422224  0.017080537 
    8400    11917.568    84669.563   -71994.142   -757.85255    251488.41    281.09464 -0.053497891  0.017080537 
    8500    12228.108    84826.579   -71843.269   -755.20155    251434.24    281.03409 -0.015672355  0.017080537 
    8600    11808.499    84541.439   -71973.704   -759.23717    252229.67    281.92316  0.063743967  0.017080537 
    8700    12179.341    84752.754   -71811.853    -761.5598    252164.46    281.85027  0.058933603  0.017080537 
    8800    12163.676    84799.951   -71877.221   -759.05374    252554.77    282.28654  0.042319571  0.017080537 
    8900    12268.223    84771.875   -71748.428   -755.22382    252693.72    282.44184 0.0016230709  0.017080537 
    9000    12278.802    84775.804   -71732.298   -764.70405    253117.25    282.91523  0.091770632  0.017080537 
    9100    12641.529    84819.055   -71423.027   -754.49815    253065.86     282.8578  0.052536855  0.017080537 
    9200    12797.639    85069.341   -71512.016   -759.68587    253413.07    283.24587 -0.00023712326  0.017080537 
    9300    13282.595    85551.348   -71514.486   -754.26687    253312.31    283.13325  0.014164307  0.017080537 
    9400    12959.404    85083.133   -71363.892   -759.83657    254015.58    283.91932  0.053500069  0.017080537 
    9500    13418.897    85441.127    -71260.51    -761.7208    253949.25    283.84518  0.026007817  0.017080537 
    9600    13579.347    85590.533   -71252.193   -758.99215    253964.12     283.8618  0.020269794  0.017080537 
    9700    13592.009    85432.061   -71082.432   -757.62058    254318.98    284.25843  0.085394602  0.017080537 
    9800    13534.923    85360.448    -71061.57   -763.95416    254753.38    284.74398   0.04938741  0.017080537 
    9900    13823.319    85476.385   -70893.926   -759.14063    254775.24    284.76841  0.068473307  0.017080537 
   10000    13951.211     85703.27   -70992.274   -759.78448    254813.24    284.81088  0.089822849  0.017080537 
Loop time of 24.5248 on 12288 procs for 10000 steps with 300146 atoms

Performance: 352.296 ns/day, 0.068 hours/ns, 407.750 timesteps/s
939.5% CPU use with 1024 MPI tasks x 12 OpenMP threads

MPI task timing breakdown:
Section |  min time  |  avg time  |  max time  |%varavg| %total
---------------------------------------------------------------
Pair    | 4.0761     | 10.713     | 15.75      |  67.4 | 43.68
Bond    | 0.1916     | 0.21981    | 0.23907    |   1.8 |  0.90
Neigh   | 1.7911     | 1.8738     | 1.9779     |   2.7 |  7.64
Comm    | 4.5201     | 8.9468     | 15.856     |  73.1 | 36.48
Output  | 0.010983   | 0.030674   | 0.063434   |   5.1 |  0.13
Modify  | 1.0338     | 2.5167     | 4.8105     |  40.6 | 10.26
Other   |            | 0.2238     |            |       |  0.91

Nlocal:        293.111 ave         297 max         289 min
Histogram: 1 16 85 184 0 367 246 102 22 1
Nghost:        3604.79 ave        5924 max         402 min
Histogram: 4 1 43 156 194 199 127 113 140 47
Neighs:        19230.6 ave       28680 max        7181 min
Histogram: 10 22 73 114 176 182 158 169 104 16

Total # of neighbors = 19692119
Ave neighs/atom = 65.608467
Ave special neighs/atom = 1.9870130
Neighbor list builds = 500
Dangerous builds = 490

Please see the log.cite file for references relevant to this simulation

Total wall time: 0:00:26
