LAMMPS (29 Oct 2020)
  using 12 OpenMP thread(s) per MPI task
Reading data file ...
  orthogonal box = (-709.00000 -659.00000 -772.50000) to (709.00000 659.00000 772.50000)
  4 by 4 by 8 MPI processor grid
  reading atoms ...
  300146 atoms
  reading velocities ...
  300146 velocities
  scanning bonds ...
  1 = max bonds/atom
  reading bonds ...
  298197 bonds
Finding 1-2 1-3 1-4 neighbors ...
  special bond factors lj:    0.0      0.0      0.0     
  special bond factors coul:  0.0      0.0      0.0     
     2 = max # of 1-2 neighbors
     2 = max # of 1-3 neighbors
     4 = max # of 1-4 neighbors
     6 = max # of special neighbors
  special bonds CPU = 0.047 seconds
  read_data CPU = 2.131 seconds
Setting atom values ...
  9745 settings made for charge
Setting atom values ...
  1949 settings made for charge
Setting atom values ...
  5847 settings made for charge
Setting atom values ...
  3898 settings made for charge
Finding 1-2 1-3 1-4 neighbors ...
  special bond factors lj:    0.0      1.0      1.0     
  special bond factors coul:  0.0      1.0      1.0     
     2 = max # of 1-2 neighbors
     6 = max # of special neighbors
  special bonds CPU = 0.015 seconds
Neighbor list info ...
  update every 20 steps, delay 0 steps, check yes
  max neighbors/atom: 2000, page size: 100000
  master list distance cutoff = 38
  ghost atom cutoff = 38
  binsize = 11.5, bins = 124 115 135
  1 neighbor lists, perpetual/occasional/extra = 1 0 0
  (1) pair ljlambda, perpetual
      attributes: half, newton on
      pair build: half/multi/newton
      stencil: half/multi/3d/newton
      bin: standard
Setting up Verlet run ...
  Unit style    : real
  Current step  : 0
  Time step     : 10.0
Per MPI rank memory allocation (min/avg/max) = 18.64 | 19.80 | 54.50 Mbytes
Step PotEng E_bond E_vdwl E_coul KinEng Temp Press Density 
       0   -50472.541    3507.3266   -53235.227   -744.64087    268402.57          300    8.9798637  0.017080537 
     100   -18781.589    59166.759    -77196.29   -752.05774    237318.63    265.25674   0.84150215  0.017080537 
     200   -16376.587    61985.849   -77603.165   -759.27091    235603.67    263.33988   0.57094756  0.017080537 
     300    -13766.68      64469.4   -77477.012   -759.06781    233661.12    261.16864   0.13238602  0.017080537 
     400   -11281.503    66686.235   -77225.108   -742.63004    231916.22    259.21833 -0.007405064  0.017080537 
     500   -9698.2762    68132.461   -77086.731    -744.0056    231129.55    258.33904  -0.11603527  0.017080537 
     600   -8094.5334    69377.521   -76724.849   -747.20471    230165.63    257.26166  -0.10643893  0.017080537 
     700   -6791.6032    70432.231   -76465.449     -758.386    229612.96    256.64392 -0.0098116446  0.017080537 
     800   -5730.1549    71492.718   -76470.528   -752.34553    229408.38    256.41526  -0.01298491  0.017080537 
     900    -5261.399    72110.108   -76619.923   -751.58408    229663.63    256.70055 -0.080177022  0.017080537 
    1000   -4170.6217    73005.984   -76433.761   -742.84464    229369.51    256.37181   -0.0372617  0.017080537 
    1100    -3825.952    73473.773   -76551.838   -747.88702    229640.88    256.67513  -0.02147201  0.017080537 
    1200   -3445.3037    73876.326   -76571.793   -749.83636    230120.68    257.21141 -0.0070750504  0.017080537 
    1300   -2489.4835    74758.907   -76497.327   -751.06316    229867.55    256.92848  -0.11417438  0.017080537 
    1400    -2168.877    75097.142    -76513.59   -752.42889    230269.17    257.37739 -0.048542222  0.017080537 
    1500   -1724.4546    75599.921   -76574.008   -750.36699    230544.66    257.68531 -0.076161301  0.017080537 
    1600   -1427.9989     75805.93   -76487.955    -745.9741    230915.62    258.09993 -0.072301013  0.017080537 
    1700   -1102.3666    76164.813    -76517.85   -749.32964    231227.08    258.44806 -0.0070139338  0.017080537 
    1800   -1148.1543    76034.582   -76434.763   -747.97328    232040.13    259.35683 -0.026093923  0.017080537 
    1900   -250.24152     76819.26   -76326.989   -742.51184    231989.77    259.30054 -0.020162785  0.017080537 
    2000   -303.09757    76624.869   -76185.582   -742.38495    232895.62    260.31303  0.044963135  0.017080537 
    2100    120.92926    77145.333    -76283.69   -740.71432    233148.15    260.59529 -0.0069895687  0.017080537 
    2200     553.4132     77518.83   -76216.221   -749.19573    233611.49    261.11318 -0.025617823  0.017080537 
    2300    611.41292    77521.328    -76164.95   -744.96552    234299.09    261.88172  0.049108494  0.017080537 
    2400     795.6012    77525.565   -75987.109   -742.85471    234740.99    262.37564  0.031224987  0.017080537 
    2500    1241.7608    78002.426   -76022.861     -737.804    235079.19    262.75365  0.011262606  0.017080537 
    2600    1503.1197    78272.285    -76028.81   -740.35547    235394.13    263.10567 0.00055269825  0.017080537 
    2700     1675.786    78256.362   -75831.334   -749.24199     235841.5    263.60571 0.0068556725  0.017080537 
    2800    2214.7801     78625.47   -75661.105   -749.58475    236025.54    263.81141  0.058934825  0.017080537 
    2900    2049.7359    78492.184    -75693.72   -748.72851    236842.31    264.72434  0.013649849  0.017080537 
    3000    2464.0814    79058.872   -75846.696   -748.09372    237131.52     265.0476 -0.00040094666  0.017080537 
    3100    2958.2107    79397.277    -75692.42   -746.64587    237271.57    265.20413 -0.066611449  0.017080537 
    3200    3015.5509    79434.548   -75664.948   -754.04977    237944.12    265.95585   0.02695665  0.017080537 
    3300     3351.062    79507.883    -75405.47   -751.35076    238177.03    266.21619  0.019988436  0.017080537 
    3400    3457.3538    79679.707   -75473.199   -749.15347    238684.88    266.78383  0.029516307  0.017080537 
    3500    3474.1004    79600.948    -75397.03   -729.81823    239267.45    267.43498 -0.039225763  0.017080537 
    3600    3787.8243        79704   -75181.802   -734.37307    239605.36    267.81267 0.00048469715  0.017080537 
    3700     3906.317    80143.741   -75493.201   -744.22264    239844.88    268.08038  -0.01124263  0.017080537 
    3800     4271.596    80242.709    -75228.91   -742.20341    240082.37    268.34583 -0.026131589  0.017080537 
    3900    4346.6284    80347.613   -75258.344   -742.64081    240432.89    268.73762  0.033304553  0.017080537 
    4000    4516.0117    80476.195   -75214.308   -745.87508    240819.76    269.17003  0.012936009  0.017080537 
    4100    4692.7124    80482.932   -75045.251   -744.96829    241243.09    269.64319  0.080581094  0.017080537 
    4200    5011.3009    81011.073   -75259.777   -739.99519    241479.57    269.90752  -0.12853315  0.017080537 
    4300    5508.2545    81106.809   -74851.937   -746.61695    241492.46    269.92193 -0.078682195  0.017080537 
    4400    5419.5217    80998.045   -74825.166   -753.35686    242099.24    270.60014  -0.05329421  0.017080537 
    4500    5795.7865    81327.843   -74779.496   -752.56048    242356.33    270.88749  0.028218617  0.017080537 
    4600    5749.9719    81188.809   -74691.684   -747.15325     242904.8    271.50053 -0.0069804071  0.017080537 
    4700     5932.728    81229.403   -74545.022   -751.65292    243207.94    271.83936  0.011851525  0.017080537 
    4800    6383.5273    81592.991   -74455.757   -753.70679    243363.28    272.01299 0.0039961941  0.017080537 
    4900    6497.9612    81471.227   -74222.423   -750.84207    243567.98    272.24178  0.051762876  0.017080537 
    5000    6856.5842    81934.527   -74327.552   -750.39139    243642.67    272.32526 0.0048113174  0.017080537 
    5100     6758.669    81707.969   -74202.195   -747.10464    244372.56    273.14109  0.091544853  0.017080537 
    5200    7036.3397      81964.4   -74179.101   -748.95925    244503.81    273.28778  0.067809891  0.017080537 
    5300    7291.9258    82135.123   -74098.545   -744.65276    244727.79    273.53813  0.032711891  0.017080537 
    5400    7466.0663    82181.064   -73958.488   -756.51059    245249.56    274.12133 0.0095413223  0.017080537 
    5500    7212.7993    82032.906   -74063.184   -756.92271    245953.53    274.90817 0.0076926302  0.017080537 
    5600    7701.7546    82289.725   -73831.457   -756.51317    245946.75    274.90059  0.028520657  0.017080537 
    5700    7865.1179    82245.171   -73624.803      -755.25    246315.95    275.31325  0.099051994  0.017080537 
    5800    7903.6826    82271.526   -73612.492   -755.35075    246803.07    275.85772  0.084003404  0.017080537 
    5900    8377.0538    82680.448    -73541.38   -762.01448    246773.64    275.82483  0.097221956  0.017080537 
    6000    8520.8354     82745.79   -73471.718   -753.23593    246928.07    275.99744  0.072017833  0.017080537 
    6100    8607.6632    82771.799   -73408.029   -756.10749    247292.53     276.4048    0.1000774  0.017080537 
    6200    8676.1796    82875.919   -73435.852   -763.88753    247627.09    276.77875 0.0073024992  0.017080537 
    6300    9027.2557    83172.113   -73381.828   -763.02949    247724.33    276.88744 -0.022981826  0.017080537 
    6400    9278.5875    83367.546   -73322.034   -766.92389    247899.47    277.08319 -0.036418904  0.017080537 
    6500    9306.5637    83388.172   -73323.207   -758.40086    248374.38    277.61401  0.049586113  0.017080537 
    6600    9150.8531    83297.165   -73385.539   -760.77231    248963.92    278.27296  0.057062658  0.017080537 
    6700    9473.0634    83416.363   -73182.037   -761.26335    249120.04    278.44745  0.069696508  0.017080537 
    6800    9263.4226    83329.911   -73295.512   -770.97582    249708.72    279.10544  0.053786374  0.017080537 
    6900    9598.1288    83312.527   -72953.578   -760.82015    249731.74    279.13117  0.084171136  0.017080537 
    7000    9868.1042    83693.823   -73057.015    -768.7031    249974.67     279.4027    0.1079811  0.017080537 
    7100    10092.037    83896.954    -73028.78   -776.13685    249987.81    279.41739 -0.020429565  0.017080537 
    7200    10243.383    83689.601   -72680.144   -766.07372    250101.13    279.54404   0.10212066  0.017080537 
    7300    10356.628    83753.069   -72635.664   -760.77642    250321.29    279.79012  0.031238761  0.017080537 
    7400     10485.39    83823.164   -72573.246   -764.52833     250627.8    280.13272  0.067475932  0.017080537 
    7500    10905.269    84050.221   -72371.107   -773.84453    250566.59     280.0643  0.059083997  0.017080537 
    7600    11284.203    84509.781   -72460.025   -765.55315    250564.31    280.06175  0.040741982  0.017080537 
    7700    11219.057    84471.805   -72488.233   -764.51427    251058.22    280.61381  0.051381653  0.017080537 
    7800    10987.217    84242.958   -72493.718   -762.02266    251655.19    281.28105 0.0054158669  0.017080537 
    7900    11396.786    84605.883   -72454.417      -754.68    251569.38    281.18513 0.0023637113  0.017080537 
    8000    11551.044    84470.579   -72167.156   -752.37906    251782.96    281.42386  0.092710046  0.017080537 
    8100    11852.466    84748.119   -72138.696   -756.95701    251817.63    281.46262 -0.0050846719  0.017080537 
    8200    11829.699    84503.208   -71915.042   -758.46625    252088.63    281.76551  0.094602059  0.017080537 
    8300     11800.21    84498.863   -71938.744   -759.90906    252471.04    282.19295   0.13362773  0.017080537 
    8400    12181.385     84769.96   -71827.416   -761.15878    252281.26    281.98082 0.0062874661  0.017080537 
    8500    12192.413    84627.628   -71672.308   -762.90634    252644.84    282.38721  0.068063155  0.017080537 
    8600    12278.528     84888.94   -71854.487   -755.92546    252907.49    282.68077  0.016858889  0.017080537 
    8700    12455.795    84707.113   -71490.692   -760.62548    253044.14    282.83352   0.11982757  0.017080537 
    8800    12330.199     84626.96   -71528.407   -768.35438    253575.31    283.42722  0.097463668  0.017080537 
    8900    12703.211    84975.428   -71500.537   -771.67977    253506.08    283.34983  0.049976422  0.017080537 
    9000    12825.284    84967.344   -71371.223   -770.83665    253705.08    283.57226   0.04004669  0.017080537 
    9100     12729.11     84721.09   -71219.827   -772.15326    254060.78    283.96984   0.15935175  0.017080537 
    9200    13262.581    85167.504   -71140.406   -764.51779    253893.13    283.78245  0.055916576  0.017080537 
    9300    13392.313     85183.07   -71021.631   -769.12609    254067.38    283.97721  0.061169041  0.017080537 
    9400    13208.721    85050.905   -71068.809   -773.37401    254570.66    284.53975  0.086460691  0.017080537 
    9500    13594.049    85257.051   -70895.104   -767.89783    254429.86    284.38237  0.079149798  0.017080537 
    9600     13768.28    85529.803   -70989.913   -771.60923    254621.32    284.59637 0.0014824181  0.017080537 
    9700    13823.154    85469.234   -70875.544   -770.53561    255006.17    285.02652  0.032261671  0.017080537 
    9800    14154.787    85627.541   -70691.725   -781.02922    254890.86    284.89764 -0.041235703  0.017080537 
    9900    14030.261    85493.713   -70686.638   -776.81389    255151.58    285.18905  0.069370345  0.017080537 
   10000    14545.502     86061.53   -70738.538   -777.48924    254838.25    284.83883  0.023992169  0.017080537 
Loop time of 137.119 on 1536 procs for 10000 steps with 300146 atoms

Performance: 63.011 ns/day, 0.381 hours/ns, 72.929 timesteps/s
713.8% CPU use with 128 MPI tasks x 12 OpenMP threads

MPI task timing breakdown:
Section |  min time  |  avg time  |  max time  |%varavg| %total
---------------------------------------------------------------
Pair    | 54.335     | 82.419     | 111.38     | 125.9 | 60.11
Bond    | 1.5647     | 1.7648     | 1.8775     |   6.1 |  1.29
Neigh   | 12.447     | 12.57      | 12.716     |   1.5 |  9.17
Comm    | 5.268      | 31.718     | 62.592     | 203.7 | 23.13
Output  | 0.0097023  | 0.04911    | 0.20716    |  27.9 |  0.04
Modify  | 2.8732     | 5.5665     | 15.718     | 169.6 |  4.06
Other   |            | 3.032      |            |       |  2.21

Nlocal:        2344.89 ave        2458 max        2253 min
Histogram: 6 6 20 18 29 20 15 8 5 1
Nghost:        7187.58 ave       12052 max        3103 min
Histogram: 1 4 23 22 33 25 9 3 3 5
Neighs:       153236.0 ave      212710 max       95549 min
Histogram: 3 3 14 18 24 29 25 8 3 1

Total # of neighbors = 19614156
Ave neighs/atom = 65.348717
Ave special neighs/atom = 1.9870130
Neighbor list builds = 500
Dangerous builds = 490

Please see the log.cite file for references relevant to this simulation

Total wall time: 0:02:19
