LAMMPS (29 Oct 2020)
  using 12 OpenMP thread(s) per MPI task
Reading data file ...
  orthogonal box = (-709.00000 -659.00000 -772.50000) to (709.00000 659.00000 772.50000)
  8 by 8 by 16 MPI processor grid
  reading atoms ...
  300146 atoms
  reading velocities ...
  300146 velocities
  scanning bonds ...
  1 = max bonds/atom
  reading bonds ...
  298197 bonds
Finding 1-2 1-3 1-4 neighbors ...
  special bond factors lj:    0.0      0.0      0.0     
  special bond factors coul:  0.0      0.0      0.0     
     2 = max # of 1-2 neighbors
     2 = max # of 1-3 neighbors
     4 = max # of 1-4 neighbors
     6 = max # of special neighbors
  special bonds CPU = 0.048 seconds
  read_data CPU = 2.260 seconds
Setting atom values ...
  9745 settings made for charge
Setting atom values ...
  1949 settings made for charge
Setting atom values ...
  5847 settings made for charge
Setting atom values ...
  3898 settings made for charge
Finding 1-2 1-3 1-4 neighbors ...
  special bond factors lj:    0.0      1.0      1.0     
  special bond factors coul:  0.0      1.0      1.0     
     2 = max # of 1-2 neighbors
     6 = max # of special neighbors
  special bonds CPU = 0.011 seconds
Neighbor list info ...
  update every 20 steps, delay 0 steps, check yes
  max neighbors/atom: 2000, page size: 100000
  master list distance cutoff = 38
  ghost atom cutoff = 38
  binsize = 11.5, bins = 124 115 135
  1 neighbor lists, perpetual/occasional/extra = 1 0 0
  (1) pair ljlambda, perpetual
      attributes: half, newton on
      pair build: half/multi/newton
      stencil: half/multi/3d/newton
      bin: standard
Setting up Verlet run ...
  Unit style    : real
  Current step  : 0
  Time step     : 10.0
Per MPI rank memory allocation (min/avg/max) = 17.56 | 17.68 | 20.04 Mbytes
Step PotEng E_bond E_vdwl E_coul KinEng Temp Press Density 
       0   -50472.541    3507.3266   -53235.227   -744.64087    268402.57          300    8.9798637  0.017080537 
     100   -18717.227    59200.382   -77165.595   -752.01503    237343.75    265.28481   0.83997731  0.017080537 
     200   -16350.855    62012.337   -77607.109   -756.08282    235661.11    263.40408   0.57603668  0.017080537 
     300   -13513.284    64555.206    -77310.42   -758.06976    233502.45     260.9913   0.18396453  0.017080537 
     400   -11367.728     66618.37    -77245.02   -741.07853    232131.32    259.45875 -0.0087865517  0.017080537 
     500   -9406.9981    68265.629   -76924.651   -747.97567    231050.09    258.25024 -0.032255127  0.017080537 
     600   -8098.3955    69477.485   -76820.889   -754.99141       230500    257.63539 -0.034749507  0.017080537 
     700   -6890.7086    70538.617   -76674.548   -754.77753    230146.68    257.24047 -0.084585126  0.017080537 
     800   -6062.4181     71092.68   -76399.349   -755.74996    230115.02    257.20509  0.027024145  0.017080537 
     900    -4953.215    72268.578   -76476.755   -745.03854     229864.2    256.92474  -0.11473378  0.017080537 
    1000   -4457.2606    72899.312   -76617.369   -739.20337    230048.82    257.13109  -0.10437927  0.017080537 
    1100    -3781.324    73379.521   -76411.103   -749.74243     230212.3    257.31382  0.050628899  0.017080537 
    1200   -3160.6032    73987.197   -76392.012    -755.7875    230333.66    257.44947  0.022383218  0.017080537 
    1300   -2563.0772    74639.354   -76454.229   -748.20235     230493.4    257.62801 -0.0095337138  0.017080537 
    1400   -1789.6631    75143.413   -76184.404   -748.67206    230472.82    257.60501  0.051333255  0.017080537 
    1500   -1614.1813     75588.94   -76456.828   -746.29372    231050.47    258.25066 -0.025567336  0.017080537 
    1600   -1201.9714    75777.376   -76240.693   -738.65492    231419.47     258.6631  0.022140884  0.017080537 
    1700   -871.09739    76189.286   -76311.329   -749.05453    231817.54    259.10803  0.014565785  0.017080537 
    1800    -822.4011    76320.334   -76397.506   -745.22947    232538.24    259.91357   0.06368561  0.017080537 
    1900   -279.16859    76774.211   -76307.587   -745.79222    232677.15    260.06884  0.021884642  0.017080537 
    2000     11.11723    77246.481   -76493.571   -741.79302    232981.58     260.4091 -0.0077464506  0.017080537 
    2100    282.98815    77223.261    -76195.47   -744.80294    233377.07    260.85115  0.020883495  0.017080537 
    2200    591.32454    77523.442   -76186.358   -745.75968    233892.25    261.42699 0.0055686214  0.017080537 
    2300    1169.3813    77957.272   -76043.821    -744.0696    233984.81    261.53044  0.068020622  0.017080537 
    2400    1075.1966    77720.161   -75913.281   -731.68347    234785.16    262.42501   0.04331939  0.017080537 
    2500    1227.2025    77860.407   -75887.779   -745.42504    235241.02    262.93454  0.036727602  0.017080537 
    2600    1752.2595    78414.727   -75912.078   -750.38928    235279.81     262.9779 0.00066191833  0.017080537 
    2700    1970.6071    78535.055   -75821.883   -742.56413    235884.76    263.65406 -0.0033790352  0.017080537 
    2800    2432.3824    78755.451   -75576.367   -746.70148    236151.92    263.95267  0.052546015  0.017080537 
    2900    2917.5871    79441.859   -75776.268   -748.00331    236261.33    264.07496 -0.0025349281  0.017080537 
    3000     2772.088    79164.372   -75649.165   -743.11907    236977.38    264.87531  0.029961337  0.017080537 
    3100    2824.5463    79149.005   -75585.843   -738.61664    237515.53    265.47681    0.0672007  0.017080537 
    3200    3347.9128    79584.609   -75498.382   -738.31372    237578.36    265.54704   0.10829773  0.017080537 
    3300    3117.8826    79416.233   -75560.142   -738.20866    238470.88    266.54463  0.032908636  0.017080537 
    3400    3703.2545    79976.981   -75530.232   -743.49452    238523.36    266.60329  0.046476193  0.017080537 
    3500    3488.4562    79750.263   -75514.891   -746.91581    239387.84    267.56954   0.10609096  0.017080537 
    3600    3666.4231    79810.709   -75395.325   -748.96066    239775.57    268.00292  0.021086261  0.017080537 
    3700    4188.6822    80178.473    -75250.79   -739.00033    239723.59    267.94481  0.031560937  0.017080537 
    3800    4570.1266    80544.696   -75231.777   -742.79168     239895.2    268.13663  0.018393759  0.017080537 
    3900    4689.7043    80481.038   -75043.598   -747.73618    240430.15    268.73455  0.060345035  0.017080537 
    4000    4811.2741    80603.734   -75043.408    -749.0524    240893.02    269.25191 -0.0049728969  0.017080537 
    4100    5101.7097    80812.673   -74969.991   -740.97267     241195.6    269.59012 -0.018431623  0.017080537 
    4200    5511.7321     80997.19    -74743.11   -742.34824    241185.55    269.57889    0.0838221  0.017080537 
    4300    5218.5122    80645.244   -74672.517   -754.21455    241839.33    270.30962  0.073278621  0.017080537 
    4400    5385.9523    80864.405   -74733.748   -744.70501    242185.64    270.69671  0.013306781  0.017080537 
    4500    5406.1366    80817.169   -74668.709   -742.32376    242689.79    271.26021  0.022414524  0.017080537 
    4600    5834.0141    81191.885   -74606.919   -750.95164    242769.02    271.34877 0.00016586827  0.017080537 
    4700    5929.3106     81316.81   -74639.791    -747.7086    243183.08    271.81157  0.048587596  0.017080537 
    4800    6075.3206    81282.808   -74460.979   -746.50854    243352.54    272.00098  0.052732037  0.017080537 
    4900    6347.9632    81429.572   -74337.016   -744.59355    243584.41    272.26014 -0.0036090841  0.017080537 
    5000    6613.4597    81672.119   -74318.135   -740.52387    243809.71    272.51197  0.014064285  0.017080537 
    5100     6565.711    81718.075   -74413.265   -739.09905    244189.56    272.93653 -0.016588631  0.017080537 
    5200    6502.2575    81616.799   -74364.999   -749.54233    244663.79     273.4666  0.067671654  0.017080537 
    5300    6854.3535    81769.463   -74167.078   -748.03223    244768.45    273.58358  0.070799456  0.017080537 
    5400    7275.6548    82239.455   -74215.626   -748.17425    244887.67    273.71683  0.013552079  0.017080537 
    5500     7284.038    81896.391   -73861.249   -751.10373       245321    274.20117  0.063967117  0.017080537 
    5600    7578.1322    82328.192    -73999.25   -750.81056    245430.39    274.32344  0.059493662  0.017080537 
    5700    7515.3602    82282.887   -74009.745   -757.78176    245911.24     274.8609 -0.011198124  0.017080537 
    5800    7787.0391    82263.567   -73717.955   -758.57307    246000.68    274.96086  0.056935172  0.017080537 
    5900     7734.841    82270.782   -73781.751   -754.19046    246552.97    275.57818  0.079135782  0.017080537 
    6000    8190.2056    82795.536   -73852.695   -752.63512    246598.67    275.62926   0.06404381  0.017080537 
    6100    8972.5865    83184.038    -73452.21   -759.24116    246421.47     275.4312   0.06769609  0.017080537 
    6200    8634.8776    83129.481   -73734.873   -759.73063    247268.63    276.37808  0.035385675  0.017080537 
    6300    8847.2959    83132.455   -73533.868   -751.29134    247542.16    276.68382  0.060907184  0.017080537 
    6400    9240.7063    83190.606   -73193.605   -756.29511    247559.59     276.7033  0.021765637  0.017080537 
    6500    9194.2272     83425.96   -73475.226   -756.50627    248000.76    277.19641 -0.030391894  0.017080537 
    6600    9489.2642     83422.07   -73174.411    -758.3942    248029.38     277.2284  0.028150757  0.017080537 
    6700    9261.3922    83271.335   -73255.889   -754.05324       248678    277.95338  0.069625843  0.017080537 
    6800    9467.8085     83296.72   -73066.796   -762.11589    248920.47    278.22438   0.09066518  0.017080537 
    6900    9346.5328    83245.501   -73136.474   -762.49486    249406.19    278.76729  0.058972674  0.017080537 
    7000    9725.5169    83364.885   -72878.476   -760.89208    249497.41    278.86925  0.057650823  0.017080537 
    7100    10438.074    83931.371   -72728.923   -764.37362    249016.42    278.33163 0.0047236275  0.017080537 
    7200    10466.533    83968.856   -72738.873   -763.45011    249384.64     278.7432 -0.014546317  0.017080537 
    7300    10409.758    83830.913   -72662.627   -758.52821     249899.8    279.31902  0.057326375  0.017080537 
    7400    10804.497    84169.614   -72596.139    -768.9782    249868.97    279.28456   0.00419871  0.017080537 
    7500    10786.598    83988.436   -72432.988   -768.85012    250261.67    279.72348  0.076512051  0.017080537 
    7600    11105.806    84211.708   -72344.793   -761.10821    250206.65    279.66198  0.025377401  0.017080537 
    7700    11171.652    84066.824   -72127.155   -768.01766    250390.74    279.86774  0.093483824  0.017080537 
    7800     11239.63    84099.557   -72090.733   -769.19451     250604.5    280.10666  0.065396643  0.017080537 
    7900     11689.12    84624.624   -72170.452    -765.0521    250568.45    280.06637 -0.0029470673  0.017080537 
    8000    11298.468    84187.963    -72133.27   -756.22504    251289.54    280.87236  0.062930512  0.017080537 
    8100    11797.744    84616.733   -72065.438   -753.55049     251144.2    280.70991  -0.03587538  0.017080537 
    8200    12190.025    84645.568   -71692.338   -763.20493    251019.42    280.57044  0.097344304  0.017080537 
    8300    12094.501    84602.933   -71759.444   -748.98799    251451.04    281.05287  0.034106909  0.017080537 
    8400    11977.558    84490.177   -71759.037   -753.58221    251827.94    281.47413  0.071650311  0.017080537 
    8500    11912.229    84506.738   -71839.917   -754.59163    252162.76    281.84837  0.031176096  0.017080537 
    8600    11873.592    84332.254   -71686.572   -772.09061    252575.47    282.30967      0.12463  0.017080537 
    8700    12360.006    84640.181   -71504.416   -775.75952    252258.65    281.95555  0.069024357  0.017080537 
    8800    12500.881    84690.232    -71420.72   -768.63104    252404.11    282.11814  0.052151164  0.017080537 
    8900    12832.379    85193.982    -71598.89   -762.71315    252491.82    282.21618  0.020399133  0.017080537 
    9000    12711.079    84955.832   -71475.563   -769.19047    252858.27    282.62577  0.053627724  0.017080537 
    9100    12813.281    84962.137   -71381.667   -767.18878    253163.91    282.96738  0.087900725  0.017080537 
    9200     13024.59     85173.15   -71385.069    -763.4905    253174.42    282.97914  0.020179876  0.017080537 
    9300    13165.807    85130.753   -71217.713   -747.23314    253416.06    283.24921 -0.023503296  0.017080537 
    9400    13168.288     85106.81   -71187.338   -751.18375    253595.83    283.45015  0.061547854  0.017080537 
    9500    13275.517    85044.976   -71024.914   -744.54558    253906.75    283.79767   0.12033357  0.017080537 
    9600     13578.05    85468.207   -71137.947   -752.20985    253947.02    283.84268 -0.085546138  0.017080537 
    9700    13751.185    85346.449   -70832.488   -762.77561    254160.99    284.08184  0.084059288  0.017080537 
    9800    13907.843    85329.678    -70668.74   -753.09517     254234.2    284.16368  0.087415004  0.017080537 
    9900    14144.374    85492.087   -70589.973   -757.74068    254331.06    284.27193  0.056148608  0.017080537 
   10000    13963.192    85399.106    -70678.16   -757.75391    254958.73     284.9735 -0.0023073242  0.017080537 
Loop time of 24.5841 on 12288 procs for 10000 steps with 300146 atoms

Performance: 351.447 ns/day, 0.068 hours/ns, 406.768 timesteps/s
939.2% CPU use with 1024 MPI tasks x 12 OpenMP threads

MPI task timing breakdown:
Section |  min time  |  avg time  |  max time  |%varavg| %total
---------------------------------------------------------------
Pair    | 4.0292     | 10.709     | 15.57      |  68.4 | 43.56
Bond    | 0.1899     | 0.22003    | 0.23446    |   1.8 |  0.90
Neigh   | 1.7795     | 1.8742     | 1.9721     |   2.4 |  7.62
Comm    | 4.2373     | 8.9518     | 15.859     |  74.2 | 36.41
Output  | 0.013999   | 0.029749   | 0.058293   |   4.4 |  0.12
Modify  | 1.43       | 2.5759     | 4.4967     |  34.8 | 10.48
Other   |            | 0.2237     |            |       |  0.91

Nlocal:        293.111 ave         297 max         289 min
Histogram: 1 14 80 219 0 327 249 113 20 1
Nghost:        3597.34 ave        6003 max         409 min
Histogram: 3 2 48 167 202 202 115 117 121 47
Neighs:        19178.4 ave       29428 max        6236 min
Histogram: 6 14 77 112 184 174 198 172 83 4

Total # of neighbors = 19638677
Ave neighs/atom = 65.430414
Ave special neighs/atom = 1.9870130
Neighbor list builds = 500
Dangerous builds = 490

Please see the log.cite file for references relevant to this simulation

Total wall time: 0:00:27
