LAMMPS (29 Oct 2020)
  using 12 OpenMP thread(s) per MPI task
Reading data file ...
  orthogonal box = (-709.00000 -659.00000 -772.50000) to (709.00000 659.00000 772.50000)
  16 by 8 by 16 MPI processor grid
  reading atoms ...
  300146 atoms
  reading velocities ...
  300146 velocities
  scanning bonds ...
  1 = max bonds/atom
  reading bonds ...
  298197 bonds
Finding 1-2 1-3 1-4 neighbors ...
  special bond factors lj:    0.0      0.0      0.0     
  special bond factors coul:  0.0      0.0      0.0     
     2 = max # of 1-2 neighbors
     2 = max # of 1-3 neighbors
     4 = max # of 1-4 neighbors
     6 = max # of special neighbors
  special bonds CPU = 0.067 seconds
  read_data CPU = 2.503 seconds
Setting atom values ...
  9745 settings made for charge
Setting atom values ...
  1949 settings made for charge
Setting atom values ...
  5847 settings made for charge
Setting atom values ...
  3898 settings made for charge
Finding 1-2 1-3 1-4 neighbors ...
  special bond factors lj:    0.0      1.0      1.0     
  special bond factors coul:  0.0      1.0      1.0     
     2 = max # of 1-2 neighbors
     6 = max # of special neighbors
  special bonds CPU = 0.019 seconds
Neighbor list info ...
  update every 20 steps, delay 0 steps, check yes
  max neighbors/atom: 2000, page size: 100000
  master list distance cutoff = 38
  ghost atom cutoff = 38
  binsize = 11.5, bins = 124 115 135
  1 neighbor lists, perpetual/occasional/extra = 1 0 0
  (1) pair ljlambda, perpetual
      attributes: half, newton on
      pair build: half/multi/newton
      stencil: half/multi/3d/newton
      bin: standard
Setting up Verlet run ...
  Unit style    : real
  Current step  : 0
  Time step     : 10.0
Per MPI rank memory allocation (min/avg/max) = 17.41 | 17.59 | 18.67 Mbytes
Step PotEng E_bond E_vdwl E_coul KinEng Temp Press Density 
       0   -50472.541    3507.3266   -53235.227   -744.64087    268402.57          300    8.9798637  0.017080537 
     100   -18751.692     59183.39   -77183.391   -751.69016    237222.09    265.14883    0.8375405  0.017080537 
     200   -16394.094    62090.801   -77727.354   -757.54038    235657.45    263.39999   0.54896608  0.017080537 
     300   -13765.873    64488.902   -77489.518   -765.25579    233846.12    261.37543   0.17629914  0.017080537 
     400   -11485.663    66455.683   -77194.147   -747.19879    232204.23    259.54025   0.01992221  0.017080537 
     500   -9464.7288     68048.97    -76761.68   -752.01945    231005.98    258.20093 -0.036536531  0.017080537 
     600    -7985.831     69306.11   -76539.527   -752.41396    230381.44    257.50287  -0.02045316  0.017080537 
     700   -7028.3718    70377.472   -76645.312   -760.53188    230090.54    257.17772  -0.15549282  0.017080537 
     800   -5833.6887    71311.082   -76393.431   -751.33968    229665.28     256.7024 -0.051532525  0.017080537 
     900   -5020.8499    72194.551   -76470.228    -745.1726    229615.08    256.64629  0.032014395  0.017080537 
    1000   -4290.0465    72969.543   -76510.547   -749.04266    229785.78    256.83709 -0.0060558862  0.017080537 
    1100   -3767.1997    73455.412   -76479.222   -743.38995    230058.67     257.1421 -0.020265822  0.017080537 
    1200   -3032.0593    74194.294   -76484.781   -741.57164    230031.19    257.11139  0.012876027  0.017080537 
    1300   -2648.4589    74413.101   -76306.062   -755.49826    230375.61    257.49636 -0.030398151  0.017080537 
    1400    -2116.695    74964.703   -76326.388   -755.01004    230613.42    257.76216 -0.0018208903  0.017080537 
    1500   -1345.6926    75581.796   -76165.335   -762.15414    230558.61    257.70089 -0.010251073  0.017080537 
    1600   -1004.6112    76144.625   -76394.995   -754.24149    230911.57    258.09541 -0.020422616  0.017080537 
    1700   -876.67302    76228.899   -76351.252   -754.32018    231463.52    258.71234  0.017043445  0.017080537 
    1800   -622.89128    76543.632   -76414.747   -751.77667    231917.79    259.22009  0.078864485  0.017080537 
    1900   -474.01301    76424.792   -76151.624   -747.18108    232491.76    259.86162  0.047693232  0.017080537 
    2000   -246.65867     76834.77   -76317.197   -764.23157    232932.95    260.35475 -0.021152458  0.017080537 
    2100    149.34306    77222.155   -76307.158   -765.65391    233167.13     260.6165 0.0065966622  0.017080537 
    2200    257.17496    77262.192   -76238.797   -766.22001    233833.78    261.36163  0.083626969  0.017080537 
    2300    1179.4999      78014.5   -76077.842   -757.15828    233764.68     261.2844  0.079751662  0.017080537 
    2400    1133.5525    77990.453   -76102.248   -754.65284    234519.75    262.12836  0.021345961  0.017080537 
    2500    1539.2407    78295.414   -75991.151   -765.02188    234809.27    262.45196  0.021210498  0.017080537 
    2600    1894.1311    78496.031   -75832.141   -769.75868    235220.76     262.9119  0.070717907  0.017080537 
    2700    1853.1315    78537.465   -75927.673   -756.66043    235913.96     263.6867  0.058679782  0.017080537 
    2800    2282.4578    78793.405   -75759.321   -751.62556    236091.58    263.88523  0.041087608  0.017080537 
    2900     2193.058    78790.708   -75841.219   -756.43071    236849.23    264.73208  0.027422862  0.017080537 
    3000     2760.097    79257.201   -75743.953   -753.15113    236868.65    264.75378  0.023007516  0.017080537 
    3100    2939.7537    79224.244   -75544.613   -739.87687    237386.64    265.33275 0.0093258008  0.017080537 
    3200    3159.8723    79707.776   -75806.444   -741.46032    237769.68    265.76089 -0.0030131794  0.017080537 
    3300    3467.6251    79793.063   -75582.461   -742.97666    238159.84    266.19698  0.013362768  0.017080537 
    3400    3732.4587    80057.571   -75581.184   -743.92815    238431.92    266.50109 0.0041290025  0.017080537 
    3500    4069.2857    80106.975   -75285.428   -752.26163    238661.21    266.75737  -0.01127986  0.017080537 
    3600    4196.0418    80148.471   -75197.062   -755.36748    239148.48      267.302  0.026162755  0.017080537 
    3700    4461.8862    80324.794   -75112.096   -750.81182    239502.96    267.69821  0.067851054  0.017080537 
    3800    4565.7179    80400.841   -75086.263   -748.86014     239956.7    268.20537  0.059170807  0.017080537 
    3900    4772.6007    80647.861   -75131.878   -743.38199    240352.95    268.64827  0.033802465  0.017080537 
    4000    4840.9364    80528.046   -74938.817   -748.29165    240824.98    269.17587  0.051193462  0.017080537 
    4100     4979.908     80641.66   -74909.782   -751.96983    241283.52    269.68838  0.048001979  0.017080537 
    4200    5294.4292    80870.106   -74831.929   -743.74729    241548.33    269.98437  0.045174042  0.017080537 
    4300     5525.977    80908.902   -74634.783   -748.14186    241954.23    270.43805  0.037401986  0.017080537 
    4400    5676.4789    80978.064   -74552.314   -749.27031    242260.15    270.77999  0.037351922  0.017080537 
    4500    5709.2868    80970.206    -74508.04   -752.87927     242807.5    271.39177  0.064272618  0.017080537 
    4600    6050.5376    81161.654   -74352.793   -758.32415    243015.42    271.62417  0.069320654  0.017080537 
    4700    6259.1338    81313.485   -74300.993   -753.35847    243402.85    272.05721 0.0086513001  0.017080537 
    4800    6396.4017    81442.881   -74295.455   -751.02361    243761.14    272.45769  0.018527038  0.017080537 
    4900    6768.1309    81801.403    -74274.21   -759.06183    243923.93    272.63964  0.038789396  0.017080537 
    5000    7156.0048    81949.597   -74029.547   -764.04454    243955.06    272.67443  0.043742101  0.017080537 
    5100    7359.1535    82037.691   -73911.881   -766.65687    244246.77    273.00049  0.013368804  0.017080537 
    5200    7467.0763    82006.636   -73775.677   -763.88228    244663.56    273.46634  0.063737241  0.017080537 
    5300    7650.9804    82190.709   -73784.621   -755.10829    244986.41     273.8272 -0.014215949  0.017080537 
    5400    7962.4552    82435.097   -73709.009   -763.63204    245121.45    273.97813 -0.010690488  0.017080537 
    5500    8103.0054    82473.724   -73611.111   -759.60746    245571.94    274.48165  0.078628458  0.017080537 
    5600    8400.5131    82699.611   -73549.762   -749.33577    245696.19    274.62054   0.01276868  0.017080537 
    5700    8110.7137    82604.097   -73736.746   -756.63722    246449.35    275.46236 -0.016328036  0.017080537 
    5800    8055.5443    82502.647   -73694.203   -752.89996    246935.68    276.00594  0.017300593  0.017080537 
    5900    8761.1364    82892.555   -73381.551    -749.8671    246706.47    275.74975  0.080622605  0.017080537 
    6000     8393.968      82522.5   -73376.481   -752.05121    247467.74    276.60064  0.091229068  0.017080537 
    6100    8831.1359    82864.335   -73283.675   -749.52454    247397.51    276.52214   0.11977432  0.017080537 
    6200    8734.7285    82553.473   -73063.111   -755.63395    247881.25    277.06283  0.056890514  0.017080537 
    6300    9300.4383    83158.678   -73098.734   -759.50515    247737.81     276.9025  0.044749756  0.017080537 
    6400    9635.5179    83399.183   -73007.611   -756.05457    247825.67     277.0007  0.041157407  0.017080537 
    6500    9761.0241    83490.305   -72976.705   -752.57619    248240.77    277.46467  -0.04619132  0.017080537 
    6600    9597.2165    83359.923    -73019.67    -743.0363    248907.28    278.20965   0.05963532  0.017080537 
    6700     10069.27    83680.743   -72862.347   -749.12582    248912.67    278.21567   0.04264663  0.017080537 
    6800    10057.501    83585.835    -72770.82    -757.5131    249304.46    278.65358  0.060763244  0.017080537 
    6900     9969.055    83465.742   -72744.991   -751.69539    249793.95     279.2007  0.077518125  0.017080537 
    7000    10661.318    83889.156   -72467.584    -760.2537    249410.91    278.77257  0.035446583  0.017080537 
    7100    10741.578    84092.367   -72593.238   -757.55077    249626.31    279.01333 -0.031201146  0.017080537 
    7200    11008.151    83964.912   -72203.958   -752.80335    249761.79    279.16475  0.047339829  0.017080537 
    7300    11035.012    83949.767   -72157.351   -757.40366    250083.05    279.52384  0.021340849  0.017080537 
    7400    11218.102    84239.832   -72250.718   -771.01263    250292.42    279.75785 -0.044972248  0.017080537 
    7500    10720.913    83990.243   -72491.945   -777.38433    250987.97    280.53528 -0.037139047  0.017080537 
    7600     11419.11    84201.807   -72018.205   -764.49116    250543.52    280.03851  0.069524121  0.017080537 
    7700    11247.231    84242.648    -72236.93   -758.48734    251125.97    280.68953 -0.023889045  0.017080537 
    7800    11609.085    84150.654   -71787.069   -754.49998    251092.08    280.65164  0.051450286  0.017080537 
    7900     11636.62    84272.721    -71877.68    -758.4212    251358.55    280.94949  0.016252947  0.017080537 
    8000    12113.825    84673.117   -71807.476    -751.8148    251027.01    280.57892  0.014388543  0.017080537 
    8100    12085.803    84583.591   -71745.264   -752.52321    251519.17    281.12902  0.044196612  0.017080537 
    8200    11813.908    84177.612   -71606.192   -757.51172    252087.37    281.76411  0.085027984  0.017080537 
    8300    12374.101    84628.875   -71503.585   -751.18891     251936.4    281.59537    0.0809404  0.017080537 
    8400    12136.576    84467.169   -71568.588   -762.00536    252336.19    282.04222 0.0097434832  0.017080537 
    8500    12716.315    84805.849   -71325.306   -764.22842    252061.65    281.73536 -0.011972047  0.017080537 
    8600    12456.424    84555.804   -71337.846   -761.53405    252787.55    282.54672  0.015495989  0.017080537 
    8700    12857.915    84883.522   -71265.596   -760.01156    252588.75    282.32452  0.028095546  0.017080537 
    8800    12846.998    84909.775    -71308.28   -754.49792    252850.65    282.61725  0.094287774  0.017080537 
    8900    12641.268    84627.358   -71228.561   -757.52791    253370.26    283.19802   0.11276497  0.017080537 
    9000    13174.852    85321.217   -71382.484   -763.88182    253328.19      283.151  0.064683706  0.017080537 
    9100    13191.085    85104.406   -71147.593   -765.72747    253677.93    283.54192  0.034379409  0.017080537 
    9200    13342.564     85338.71   -71234.351   -761.79478    253772.48     283.6476   0.06392001  0.017080537 
    9300    13337.307    85432.891    -71324.14   -771.44401    254125.39    284.04206  0.049428092  0.017080537 
    9400    13214.994    85192.403   -71207.115   -770.29368    254595.54    284.56755  0.076819505  0.017080537 
    9500    13577.614    85499.621   -71158.681   -763.32548    254430.37    284.38294  0.067232694  0.017080537 
    9600    13922.357    85653.745    -70965.17   -766.21798    254342.63    284.28487  0.044671287  0.017080537 
    9700    13754.161    85584.862   -71076.692   -754.00918    254758.96     284.7502  0.054589048  0.017080537 
    9800    13977.407    85670.947   -70933.349   -760.19051       254838    284.83855 0.0045063883  0.017080537 
    9900    14204.272    85813.364   -70849.059   -760.03278    254734.31    284.72266  0.032568833  0.017080537 
   10000    14130.942    85575.795   -70683.687   -761.16635    255084.99    285.11462  0.089654723  0.017080537 
Loop time of 17.6743 on 24576 procs for 10000 steps with 300146 atoms

Performance: 488.846 ns/day, 0.049 hours/ns, 565.794 timesteps/s
939.5% CPU use with 2048 MPI tasks x 12 OpenMP threads

MPI task timing breakdown:
Section |  min time  |  avg time  |  max time  |%varavg| %total
---------------------------------------------------------------
Pair    | 1.8587     | 5.3619     | 7.8092     |  51.1 | 30.34
Bond    | 0.095585   | 0.11032    | 0.12152    |   1.3 |  0.62
Neigh   | 0.90141    | 1.0798     | 1.2195     |   5.3 |  6.11
Comm    | 5.0855     | 7.4682     | 12.31      |  44.6 | 42.25
Output  | 0.016576   | 0.031197   | 0.05209    |   3.0 |  0.18
Modify  | 1.1655     | 3.3909     | 4.6568     |  24.3 | 19.19
Other   |            | 0.2321     |            |       |  1.31

Nlocal:        146.556 ave         150 max         143 min
Histogram: 5 59 287 0 636 671 0 303 67 20
Nghost:        2942.04 ave        4878 max         452 min
Histogram: 8 25 158 306 397 272 246 304 281 51
Neighs:        9582.14 ave       14875 max        3390 min
Histogram: 37 86 171 251 304 321 350 337 152 39

Total # of neighbors = 19624227
Ave neighs/atom = 65.382271
Ave special neighs/atom = 1.9870130
Neighbor list builds = 500
Dangerous builds = 490

Please see the log.cite file for references relevant to this simulation

Total wall time: 0:00:20
