LAMMPS (29 Oct 2020)
  using 12 OpenMP thread(s) per MPI task
Reading data file ...
  orthogonal box = (-709.00000 -659.00000 -772.50000) to (709.00000 659.00000 772.50000)
  16 by 8 by 16 MPI processor grid
  reading atoms ...
  300146 atoms
  reading velocities ...
  300146 velocities
  scanning bonds ...
  1 = max bonds/atom
  reading bonds ...
  298197 bonds
Finding 1-2 1-3 1-4 neighbors ...
  special bond factors lj:    0.0      0.0      0.0     
  special bond factors coul:  0.0      0.0      0.0     
     2 = max # of 1-2 neighbors
     2 = max # of 1-3 neighbors
     4 = max # of 1-4 neighbors
     6 = max # of special neighbors
  special bonds CPU = 0.066 seconds
  read_data CPU = 2.461 seconds
Setting atom values ...
  9745 settings made for charge
Setting atom values ...
  1949 settings made for charge
Setting atom values ...
  5847 settings made for charge
Setting atom values ...
  3898 settings made for charge
Finding 1-2 1-3 1-4 neighbors ...
  special bond factors lj:    0.0      1.0      1.0     
  special bond factors coul:  0.0      1.0      1.0     
     2 = max # of 1-2 neighbors
     6 = max # of special neighbors
  special bonds CPU = 0.018 seconds
Neighbor list info ...
  update every 20 steps, delay 0 steps, check yes
  max neighbors/atom: 2000, page size: 100000
  master list distance cutoff = 38
  ghost atom cutoff = 38
  binsize = 11.5, bins = 124 115 135
  1 neighbor lists, perpetual/occasional/extra = 1 0 0
  (1) pair ljlambda, perpetual
      attributes: half, newton on
      pair build: half/multi/newton
      stencil: half/multi/3d/newton
      bin: standard
Setting up Verlet run ...
  Unit style    : real
  Current step  : 0
  Time step     : 10.0
Per MPI rank memory allocation (min/avg/max) = 17.41 | 17.59 | 18.67 Mbytes
Step PotEng E_bond E_vdwl E_coul KinEng Temp Press Density 
       0   -50472.541    3507.3266   -53235.227   -744.64087    268402.57          300    8.9798637  0.017080537 
     100   -18753.609    59180.041   -77181.935   -751.71452    237235.62    265.16395   0.83734482  0.017080537 
     200   -16402.018    62073.631   -77718.152   -757.49684    235619.21    263.35725   0.54929486  0.017080537 
     300   -13753.173    64510.725   -77499.513   -764.38544     233723.7    261.23859   0.16581997  0.017080537 
     400   -11497.001    66440.904   -77191.379   -746.52601    232184.96    259.51871 -0.0014846154  0.017080537 
     500   -9685.0236    67937.046   -76870.626   -751.44429    231133.52    258.34349 -0.037249727  0.017080537 
     600   -8024.1065    69277.623   -76547.624   -754.10483    230265.78    257.37359 -0.027045032  0.017080537 
     700   -6968.4556     70337.39   -76541.701   -764.14468    229918.21    256.98511 -0.075180967  0.017080537 
     800   -5672.4392    71670.055   -76589.787   -752.70659    229274.83    256.26598  -0.11728928  0.017080537 
     900   -4679.6614    72367.213   -76297.524   -749.35087    229174.54    256.15388 -0.032531208  0.017080537 
    1000   -4523.4676    72811.311   -76580.412   -754.36715    229705.09     256.7469 -0.054595672  0.017080537 
    1100   -3744.1865    73552.306   -76549.271   -747.22163    229663.14        256.7 -0.059007614  0.017080537 
    1200   -2897.5637    74199.982   -76356.261   -741.28512    229628.36    256.66113 -0.013487629  0.017080537 
    1300   -2515.1584    74557.686   -76322.879   -749.96493    229880.19    256.94261 -0.025472185  0.017080537 
    1400   -2119.6125    74998.225   -76371.715   -746.12223     230232.3    257.33617    0.0097764  0.017080537 
    1500   -1960.9579    75265.128   -76478.067   -748.01861    230890.21    258.07153  0.022133378  0.017080537 
    1600    -1200.721    75752.375   -76207.364   -745.73233    230877.61    258.05746  0.042222481  0.017080537 
    1700   -955.01917    76036.381   -76233.075   -758.32436    231341.38    258.57582 0.0070762707  0.017080537 
    1800   -542.31791    76569.752   -76358.008   -754.06202    231595.22    258.85954 -0.023947251  0.017080537 
    1900   -596.43235    76543.376   -76385.805   -754.00297    232567.45    259.94622 -0.087261684  0.017080537 
    2000   -111.66952    76762.585   -76114.213   -760.04181     232864.9    260.27869  0.029690807  0.017080537 
    2100    334.34131    77365.636   -76276.421   -754.87425    233084.48    260.52412 -0.032478242  0.017080537 
    2200    368.32008    77320.855   -76205.335   -747.19977    233918.92     261.4568 0.0038749884  0.017080537 
    2300    953.78713     77728.02   -76026.441   -747.79169    234125.12    261.68727  0.016336648  0.017080537 
    2400    941.14332    77790.546   -76108.829   -740.57442    234797.18    262.43845 0.0067458446  0.017080537 
    2500    1502.7046     78051.23   -75809.321   -739.20512    234913.16    262.56808   0.11265802  0.017080537 
    2600    1643.8818    78313.127   -75924.649   -744.59667    235424.46    263.13957  0.070002579  0.017080537 
    2700    1910.2608    78486.712   -75832.482   -743.96998    235869.24    263.63671  0.077108794  0.017080537 
    2800    1841.1651    78514.407   -75934.523   -738.71824    236513.06    264.35633  -0.01907048  0.017080537 
    2900    2261.2561    78612.977   -75600.749   -750.97172    236740.38    264.61041  0.066360249  0.017080537 
    3000    2441.5707    78874.322   -75686.154    -746.5975    237260.39    265.19164  0.002765424  0.017080537 
    3100    3020.3833    79224.615   -75460.792   -743.43953    237456.02     265.4103 -0.0066705568  0.017080537 
    3200    3394.7132    79564.637   -75421.222   -748.70228    237618.86    265.59231 -0.084676767  0.017080537 
    3300    3634.2267    79600.711   -75224.487   -741.99769    238067.27    266.09351 -0.037807352  0.017080537 
    3400    3547.0682    79746.073   -75459.247   -739.75824    238818.37    266.93303 0.0051683026  0.017080537 
    3500    3751.1556    79761.751   -75273.808   -736.78746    239257.85    267.42424  0.047543706  0.017080537 
    3600    4213.4968    80128.427   -75176.819   -738.11053    239425.58    267.61172  0.093490552  0.017080537 
    3700    4385.0226    80510.978   -75395.035   -730.91994    239826.17    268.05947  0.018717202  0.017080537 
    3800    4087.0777    80072.754   -75244.972   -740.70446    240737.44    269.07803  0.054094803  0.017080537 
    3900    4537.8487    80543.632   -75260.301   -745.48201    240861.06    269.21619 -0.0098743799  0.017080537 
    4000    4984.1101    80769.458   -75042.311   -743.03693    240889.23    269.24768   0.10232529  0.017080537 
    4100    4876.9407    80663.707   -75042.239   -744.52732    241549.24    269.98539  0.041688615  0.017080537 
    4200    4941.1508    80648.522   -74957.096   -750.27515    241951.04    270.43449  0.097990666  0.017080537 
    4300    5455.0409    81129.106   -74920.309   -753.75596    241992.16    270.48045   0.07915049  0.017080537 
    4400    5355.2472    80917.653   -74814.754   -747.65243    242620.54     271.1828  0.085796543  0.017080537 
    4500    5589.9641    81086.125   -74736.414   -759.74676    242958.11    271.56012   0.13598462  0.017080537 
    4600    5629.5502    81183.367   -74801.588   -752.22881    243525.46    272.19426  0.067788606  0.017080537 
    4700    6269.5753    81619.562   -74606.599   -743.38784    243304.37    271.94714  0.028388878  0.017080537 
    4800     6566.173    81777.768   -74465.929   -745.66579    243588.48     272.2647 -0.010214921  0.017080537 
    4900    6668.8438    81805.153   -74379.014   -757.29579    244073.15    272.80643 -0.0054305417  0.017080537 
    5000    6695.2488    81746.516    -74297.59   -753.67777    244435.32    273.21123 -0.0064981596  0.017080537 
    5100    7006.3652    82059.284   -74309.087   -743.83167    244624.48    273.42266  0.018789141  0.017080537 
    5200    7326.9658     82250.24   -74173.597   -749.67768    244699.23    273.50621 -0.076571187  0.017080537 
    5300    7049.3064    81985.233    -74186.35   -749.57614    245465.39    274.36256  0.024674815  0.017080537 
    5400    7518.7476    82399.715   -74128.394   -752.57298    245411.84     274.3027 -0.060252928  0.017080537 
    5500    7188.8399    82266.621   -74317.979   -759.80212       246125    275.09983 -0.013735012  0.017080537 
    5600    8037.7216    82753.992   -73960.357   -755.91419    245696.51    274.62089  0.016221588  0.017080537 
    5700    8201.4063    82895.567   -73934.227   -759.93394    245922.53    274.87352  0.084560535  0.017080537 
    5800     8184.361    82885.043   -73942.018   -758.66475    246397.61    275.40452  0.096800236  0.017080537 
    5900    8610.6852    83057.514   -73694.161   -752.66729    246367.94    275.37136   0.11277686  0.017080537 
    6000    8704.9544    83125.131   -73664.093   -756.08312    246857.75    275.91884  0.042365366  0.017080537 
    6100    8888.9485    83155.238   -73512.985   -753.30499    247048.38    276.13191  0.065919118  0.017080537 
    6200     8741.038    83069.595   -73571.989   -756.56801    247608.92    276.75844   0.10013064  0.017080537 
    6300    9137.8045    83409.489   -73521.475   -750.20954    247650.08    276.80444  0.062879585  0.017080537 
    6400    9469.1953    83573.279   -73356.889   -747.19545     247802.9    276.97525 0.0094511675  0.017080537 
    6500    9127.4443    83352.061   -73479.527   -745.08988    248493.25    277.74688 -0.015331544  0.017080537 
    6600    9343.6962     83397.32    -73313.05    -740.5735    248712.85    277.99233   0.05712378  0.017080537 
    6700    9548.6447    83598.247   -73298.172   -751.43043    248998.02    278.31107   0.04569706  0.017080537 
    6800    9834.9038    83619.485   -73035.811   -748.76994    249206.49    278.54408  0.079131502  0.017080537 
    6900    9925.9622    83708.298    -73035.56   -746.77502    249498.97    278.87099   0.03614958  0.017080537 
    7000    10019.378    83574.653   -72806.927   -748.34814    249811.13     279.2199  0.078645046  0.017080537 
    7100    10269.977    84031.028   -73012.313   -748.73898    249895.67    279.31439  0.030311274  0.017080537 
    7200    10572.859    84003.142   -72677.675   -752.60804    249930.49    279.35331   0.10389497  0.017080537 
    7300    9885.0183    83508.349   -72866.438   -756.89289     251033.6    280.58629  0.095499994  0.017080537 
    7400     10405.66     83778.02   -72612.879   -759.48094    250960.84    280.50496   0.11899181  0.017080537 
    7500    10931.854    84366.908   -72674.652   -760.40262    250776.68    280.29912 -0.0050354166  0.017080537 
    7600     10874.23    84054.567   -72412.714   -767.62293    251264.64    280.84452  0.050926009  0.017080537 
    7700    11750.623    84723.723   -72202.433   -770.66754    250707.52    280.22182 0.0024857167  0.017080537 
    7800    11231.518     84206.46   -72221.718   -753.22387    251646.11     281.2709  0.065291282  0.017080537 
    7900    11750.532    84565.606   -72055.305   -759.76875    251306.81    280.89166  0.082258024  0.017080537 
    8000    11478.736    84304.343   -72077.864   -747.74396    251805.49    281.44905    0.1539891  0.017080537 
    8100    11997.176    84530.861   -71784.428   -749.25703    251690.07    281.32003   0.12030561  0.017080537 
    8200    11952.193    84654.063   -71953.997   -747.87314    252137.19     281.8198  0.069560222  0.017080537 
    8300    12197.403    84763.474   -71820.922   -745.14919    252242.61    281.93763  0.033447485  0.017080537 
    8400    12352.624    84819.721   -71722.197   -744.90094    252331.54    282.03702 0.0096137876  0.017080537 
    8500    12364.993     84741.55   -71626.681   -749.87589    252697.38    282.44593 0.0023426635  0.017080537 
    8600    12628.234    84878.246   -71492.883    -757.1289     252717.3     282.4682 0.0001912866  0.017080537 
    8700    12651.982    84979.192   -71573.634   -753.57648    253023.23    282.81014  0.047431102  0.017080537 
    8800     12890.02    85139.949   -71489.275   -760.65343    253161.35    282.96452 0.0016247049  0.017080537 
    8900    12842.605    85049.987   -71451.789   -755.59193    253641.06    283.50071 0.0051203535  0.017080537 
    9000    13156.097    85059.173   -71153.836   -749.24051    253520.71    283.36619   0.11197435  0.017080537 
    9100    13496.656    85351.932   -71107.918   -747.35878    253466.82    283.30595  0.076856803  0.017080537 
    9200    13393.913    85236.777   -71099.892   -742.97166    253932.67    283.82665 0.0017084239  0.017080537 
    9300    13691.268    85485.712   -71041.972   -752.47228    253982.38    283.88221  0.065946938  0.017080537 
    9400    13700.412    85553.427   -71097.664   -755.35082    254193.14    284.11778  0.024550097  0.017080537 
    9500    13352.611    85234.527   -71122.541   -759.37536    254865.83    284.86966 0.0051396573  0.017080537 
    9600    13871.566    85561.294   -70928.587   -761.14119    254611.61    284.58551 0.0097997595  0.017080537 
    9700    13915.232    85432.276       -70747   -770.04417     254772.2    284.76501  0.038022801  0.017080537 
    9800    13975.812    85473.747   -70720.356   -777.57834    255018.34    285.04013 -0.027659235  0.017080537 
    9900    14095.166    85526.967     -70668.1   -763.70189    255211.22    285.25572  0.047214044  0.017080537 
   10000    14579.902    85791.665   -70441.292   -770.47104     255116.1     285.1494  0.090386315  0.017080537 
Loop time of 17.4146 on 24576 procs for 10000 steps with 300146 atoms

Performance: 496.134 ns/day, 0.048 hours/ns, 574.229 timesteps/s
939.8% CPU use with 2048 MPI tasks x 12 OpenMP threads

MPI task timing breakdown:
Section |  min time  |  avg time  |  max time  |%varavg| %total
---------------------------------------------------------------
Pair    | 1.5958     | 5.3691     | 7.8803     |  50.9 | 30.83
Bond    | 0.095817   | 0.1103     | 0.12134    |   1.3 |  0.63
Neigh   | 0.89204    | 1.0689     | 1.2059     |   5.3 |  6.14
Comm    | 4.8056     | 7.4482     | 11.952     |  44.2 | 42.77
Output  | 0.017613   | 0.028493   | 0.045393   |   3.2 |  0.16
Modify  | 1.8125     | 3.1577     | 4.4225     |  23.7 | 18.13
Other   |            | 0.2318     |            |       |  1.33

Nlocal:        146.556 ave         151 max         143 min
Histogram: 10 58 322 588 0 654 315 83 17 1
Nghost:        2941.00 ave        4888 max         418 min
Histogram: 8 21 139 332 391 279 253 277 306 42
Neighs:        9550.21 ave       14534 max        2819 min
Histogram: 19 68 134 220 292 307 313 413 236 46

Total # of neighbors = 19558840
Ave neighs/atom = 65.164420
Ave special neighs/atom = 1.9870130
Neighbor list builds = 500
Dangerous builds = 490

Please see the log.cite file for references relevant to this simulation

Total wall time: 0:00:20
