LAMMPS (29 Oct 2020)
  using 12 OpenMP thread(s) per MPI task
Reading data file ...
  orthogonal box = (-709.00000 -659.00000 -772.50000) to (709.00000 659.00000 772.50000)
  8 by 4 by 8 MPI processor grid
  reading atoms ...
  300146 atoms
  reading velocities ...
  300146 velocities
  scanning bonds ...
  1 = max bonds/atom
  reading bonds ...
  298197 bonds
Finding 1-2 1-3 1-4 neighbors ...
  special bond factors lj:    0.0      0.0      0.0     
  special bond factors coul:  0.0      0.0      0.0     
     2 = max # of 1-2 neighbors
     2 = max # of 1-3 neighbors
     4 = max # of 1-4 neighbors
     6 = max # of special neighbors
  special bonds CPU = 0.053 seconds
  read_data CPU = 2.106 seconds
Setting atom values ...
  9745 settings made for charge
Setting atom values ...
  1949 settings made for charge
Setting atom values ...
  5847 settings made for charge
Setting atom values ...
  3898 settings made for charge
Finding 1-2 1-3 1-4 neighbors ...
  special bond factors lj:    0.0      1.0      1.0     
  special bond factors coul:  0.0      1.0      1.0     
     2 = max # of 1-2 neighbors
     6 = max # of special neighbors
  special bonds CPU = 0.011 seconds
Neighbor list info ...
  update every 20 steps, delay 0 steps, check yes
  max neighbors/atom: 2000, page size: 100000
  master list distance cutoff = 38
  ghost atom cutoff = 38
  binsize = 11.5, bins = 124 115 135
  1 neighbor lists, perpetual/occasional/extra = 1 0 0
  (1) pair ljlambda, perpetual
      attributes: half, newton on
      pair build: half/multi/newton
      stencil: half/multi/3d/newton
      bin: standard
Setting up Verlet run ...
  Unit style    : real
  Current step  : 0
  Time step     : 10.0
Per MPI rank memory allocation (min/avg/max) = 17.86 | 18.39 | 35.38 Mbytes
Step PotEng E_bond E_vdwl E_coul KinEng Temp Press Density 
       0   -50472.541    3507.3266   -53235.227   -744.64087    268402.57          300    8.9798637  0.017080537 
     100    -18716.43    59196.888   -77161.164   -752.15464    237245.09    265.17454    0.8461754  0.017080537 
     200   -16346.007    62048.508   -77639.504   -755.01056    235594.36    263.32947   0.57200444  0.017080537 
     300   -13580.554    64588.482   -77412.319   -756.71697    233559.27    261.05481   0.16724862  0.017080537 
     400   -11692.045     66310.61   -77252.297   -750.35761    232204.12    259.54013   0.01880998  0.017080537 
     500   -9553.9548     68186.52   -76997.765   -742.70981    230932.33    258.11861 -0.051603634  0.017080537 
     600   -7992.2645    69477.347   -76720.343   -749.26913    230203.49    257.30397  -0.11633225  0.017080537 
     700   -6632.2395    70645.258   -76528.706   -748.79128    229623.94     256.6562  -0.12164107  0.017080537 
     800   -5914.3852    71569.792   -76739.093   -745.08474    229684.75    256.72416 -0.045093052  0.017080537 
     900   -4872.4771    72322.637   -76451.846   -743.26803    229446.72    256.45811  0.015718623  0.017080537 
    1000   -4370.0417     72794.25    -76424.23   -740.06174    229666.43    256.70369  0.017665729  0.017080537 
    1100   -3904.8805    73464.622   -76628.945   -740.55708    229979.82    257.05396 -0.029990257  0.017080537 
    1200   -3200.8307    74201.903   -76668.836   -733.89823    229976.04    257.04975   -0.1034806  0.017080537 
    1300   -2756.5643    74521.034   -76549.609   -727.98906    230240.04    257.34482 -0.051155083  0.017080537 
    1400   -2147.9624    74963.805   -76379.987   -731.78022    230467.34    257.59888  -0.04542504  0.017080537 
    1500   -1558.2386    75671.412   -76488.124   -741.52577    230677.69      257.834 -0.068745091  0.017080537 
    1600   -1391.6377    75835.256   -76488.404    -738.4898    231224.98    258.44572 -0.063004617  0.017080537 
    1700    -720.8679    76373.498   -76354.594   -739.77138    231344.02    258.57877  0.011890214  0.017080537 
    1800   -598.09452    76543.309   -76400.438   -740.96549    231932.45    259.23647  0.025648821  0.017080537 
    1900   -439.78338    76531.566   -76230.771   -740.57823     232511.6     259.8838   0.03590778  0.017080537 
    2000    209.73771    77205.018   -76251.576   -743.70416    232518.47    259.89148 -0.027631829  0.017080537 
    2100     141.9254    77137.802   -76248.535   -747.34149     233331.8    260.80056 0.0095950045  0.017080537 
    2200    430.51639    77322.331   -76147.959   -743.85504    233647.23    261.15312 -0.017149154  0.017080537 
    2300    825.33049    77655.668   -76087.719   -742.61783    233966.84    261.51035  0.036462893  0.017080537 
    2400    1203.4229    77846.938   -75907.418   -736.09757    234279.74    261.86009 -0.003320744  0.017080537 
    2500    1132.3135    77909.835   -76029.528   -747.99361    235092.24    262.76824 0.0090520772  0.017080537 
    2600    1816.6065    78415.345   -75855.007   -743.73136    235114.68    262.79333 -0.022160687  0.017080537 
    2700    1698.0973    78399.556   -75957.164   -744.29485    235908.51    263.68061  0.046675473  0.017080537 
    2800    1909.8851    78551.758    -75901.78   -740.09304       236298    264.11595 -0.029652894  0.017080537 
    2900    2236.4663    78829.406   -75849.372   -743.56687     236556.3    264.40466  0.024053731  0.017080537 
    3000     2427.526    78840.024   -75673.616   -738.88241    236986.63    264.88565 -0.027466898  0.017080537 
    3100    2534.2336    78955.912   -75682.383   -739.29535    237489.16    265.44734  0.020312461  0.017080537 
    3200    3033.3135    79208.924   -75436.327   -739.28312    237632.84    265.60793  0.070168314  0.017080537 
    3300    3195.6145    79368.165   -75425.684   -746.86635    238019.34    266.03993  0.050384069  0.017080537 
    3400    3196.2354    79232.809   -75293.246    -743.3281    238684.42    266.78331  0.053684312  0.017080537 
    3500    3507.2522    79597.806   -75345.897   -744.65677    238902.05    267.02656   0.03785719  0.017080537 
    3600    3562.0999    79566.386   -75254.366    -749.9204    239385.96    267.56744  0.014661232  0.017080537 
    3700    4195.9039    80125.193   -75177.144   -752.14512    239344.28    267.52085  0.041267256  0.017080537 
    3800    4180.2609    80063.258   -75132.292   -750.70521    239945.58    268.19294 0.0021472055  0.017080537 
    3900    3974.5562     79900.56   -75177.683   -748.32084    240697.83    269.03375  0.042266819  0.017080537 
    4000    4756.4037    80607.669   -75097.313   -753.95166     240612.4    268.93826 0.0037648272  0.017080537 
    4100    4804.1796    80610.686   -75048.411   -758.09579    241157.92      269.548 0.0059347506  0.017080537 
    4200    5334.0749    81219.534   -75133.327   -752.13294     241206.3    269.60208  -0.03615711  0.017080537 
    4300    4875.5584    80704.353   -75077.731     -751.064    242147.57    270.65416  0.092380193  0.017080537 
    4400     4912.771    80694.027   -75029.937   -751.31865    242550.88    271.10495  0.047275599  0.017080537 
    4500    5318.0364    80955.745   -74882.902   -754.80722    242614.66    271.17624 0.0037839469  0.017080537 
    4600    5510.8833    81213.589   -74956.848    -745.8583    243033.06    271.64389 -0.010881396  0.017080537 
    4700    6047.9024    81462.617   -74668.935   -745.77923    243036.69    271.64794  0.072781974  0.017080537 
    4800     6048.314    81483.725   -74694.001    -741.4097    243528.18    272.19729  0.058243879  0.017080537 
    4900     6280.758    81635.756    -74611.75   -743.24795     243801.2    272.50245  0.054296157  0.017080537 
    5000    6127.3999    81591.005   -74724.429   -739.17651    244380.34    273.14977  0.019891284  0.017080537 
    5100    6480.3651    81703.626   -74485.249   -738.01164    244376.88    273.14591  0.025881638  0.017080537 
    5200    6578.0605    81806.487   -74484.536   -743.89056    244818.28    273.63927  0.069209402  0.017080537 
    5300    6802.9669     81896.55   -74345.967   -747.61579    245106.91    273.96188   0.05440277  0.017080537 
    5400     7243.122    82255.668   -74261.341   -751.20426    245131.98    273.98991 -0.037226826  0.017080537 
    5500    7045.6848    81896.997   -74092.129   -759.18291    245872.93    274.81808  0.089219498  0.017080537 
    5600    7327.8358    82266.067   -74188.054   -750.17746    246006.87    274.96779  0.040216461  0.017080537 
    5700     7617.628    82319.312   -73949.693    -751.9913    246201.02     275.1848  0.048476872  0.017080537 
    5800    8072.4124    82628.764   -73805.607   -750.74434    246302.17    275.29785  0.014966614  0.017080537 
    5900     7998.564    82474.101   -73719.899   -755.63838    246843.36    275.90276   0.02940731  0.017080537 
    6000    8181.3714    82758.316   -73821.717   -755.22694    247157.06    276.25339 0.0065257625  0.017080537 
    6100    8360.2206    82856.048    -73733.61   -762.21752    247380.29    276.50289 -0.041126002  0.017080537 
    6200    8359.5463     82730.08   -73611.117   -759.41631    247768.03    276.93628  0.033333532  0.017080537 
    6300    8488.5438    82729.792   -73493.638    -747.6102    247976.74    277.16956     0.114755  0.017080537 
    6400    9096.2574    83160.331   -73308.918   -755.15522    247819.18    276.99346  0.090519725  0.017080537 
    6500    9252.2877    83223.154   -73212.479   -758.38653    248037.92    277.23795  0.082900861  0.017080537 
    6600    9204.0939    83303.522   -73335.251   -764.17668    248524.85    277.78219   0.04132148  0.017080537 
    6700    9054.9167     83110.08   -73299.717   -755.44729    249055.34    278.37514  0.095834075  0.017080537 
    6800    9462.2126    83355.676   -73135.438   -758.02585    248978.71    278.28948  0.094710758  0.017080537 
    6900    9804.0714    83582.733   -73024.578   -754.08398    249140.81    278.47067  0.049444676  0.017080537 
    7000     10081.28    83848.006   -73016.701   -750.02495    249251.13    278.59397  0.050684225  0.017080537 
    7100    9776.8874    83579.465   -73039.997   -762.58132    249825.74    279.23623  0.079297032  0.017080537 
    7200    10496.585    84048.507   -72788.645   -763.27676    249498.29    278.87024  0.003641584  0.017080537 
    7300    10557.541    83983.027   -72671.859   -753.62734     249830.8    279.24189  0.090771151  0.017080537 
    7400    10495.252    83813.669   -72567.946   -750.47114    250345.38    279.81704   0.13183935  0.017080537 
    7500    10578.477    83909.411   -72578.998   -751.93624    250748.39     280.2675  0.095283897  0.017080537 
    7600    10931.528    84155.915    -72468.99   -755.39744    250857.54     280.3895  0.030561482  0.017080537 
    7700    11084.162    84251.457   -72415.206   -752.08882    251042.48    280.59621   0.02606572  0.017080537 
    7800    11212.839    84381.115    -72417.96   -750.31586    251276.55    280.85784  0.040188892  0.017080537 
    7900    11800.503     84685.62    -72124.15   -760.96721     250981.7    280.52827  0.025007963  0.017080537 
    8000    11507.525    84471.012   -72197.404   -766.08366    251669.32    281.29684 -0.061236214  0.017080537 
    8100    12212.235    85142.789   -72176.493   -754.06175    251364.08    280.95568 -0.081613469  0.017080537 
    8200    12240.054    84960.772   -71968.593   -752.12493    251775.32    281.41533  0.027113667  0.017080537 
    8300     12030.68    84772.502    -71992.56   -749.26203    252386.17    282.09809  0.004038239  0.017080537 
    8400    11914.147    84541.255   -71867.732   -759.37591    252758.56    282.51432  0.058663302  0.017080537 
    8500    12162.595    84632.943   -71716.139   -754.20895    252895.11    282.66694 -0.030267976  0.017080537 
    8600    12181.789    84618.206   -71679.036   -757.38109    253058.14    282.84917 -0.0020023483  0.017080537 
    8700    12426.321    84760.949   -71582.371   -752.25646    253081.63    282.87541  0.094020684  0.017080537 
    8800     12652.84    85008.936   -71605.099   -750.99694    253169.87    282.97404    0.0204567  0.017080537 
    8900    12709.758    84952.073   -71485.679   -756.63641    253475.27     283.3154  0.013280757  0.017080537 
    9000    12859.611    84989.007   -71369.697   -759.69877    253762.32    283.63625 -0.033350958  0.017080537 
    9100    12935.809    84999.391   -71302.629   -760.95352    253884.74    283.77307   0.11609016  0.017080537 
    9200    13095.854    85051.593   -71200.728   -755.01046    253960.61    283.85787  0.082275312  0.017080537 
    9300    12890.931    84925.503    -71267.33   -767.24088    254478.42    284.43665   0.17519818  0.017080537 
    9400    13696.043    85510.598    -71050.35   -764.20496    254094.33    284.00734  0.045385338  0.017080537 
    9500    13702.504    85714.989   -71246.683   -765.80171    254295.16    284.23181 0.0047542833  0.017080537 
    9600    13510.333    85412.776   -71133.832   -768.61157    254912.65      284.922 -0.058112097  0.017080537 
    9700    13773.247     85561.56   -71026.629   -761.68341    254954.02    284.96823  0.018957822  0.017080537 
    9800    13823.707    85572.701   -70992.878   -756.11576    255134.84    285.17034    0.0116656  0.017080537 
    9900    13813.241    85411.259   -70846.622   -751.39562    255475.98    285.55164   0.16547658  0.017080537 
   10000    14094.804    85709.574   -70860.112   -754.65725    255526.19    285.60776  0.086641469  0.017080537 
Loop time of 73.2868 on 3072 procs for 10000 steps with 300146 atoms

Performance: 117.893 ns/day, 0.204 hours/ns, 136.450 timesteps/s
940.1% CPU use with 256 MPI tasks x 12 OpenMP threads

MPI task timing breakdown:
Section |  min time  |  avg time  |  max time  |%varavg| %total
---------------------------------------------------------------
Pair    | 20.465     | 41.542     | 57.705     | 104.2 | 56.68
Bond    | 0.78122    | 0.8748     | 0.92867    |   4.2 |  1.19
Neigh   | 6.4181     | 6.5162     | 6.6291     |   1.7 |  8.89
Comm    | 5.2575     | 20.376     | 42.884     | 152.1 | 27.80
Output  | 0.010474   | 0.039524   | 0.15441    |  15.0 |  0.05
Modify  | 1.7314     | 3.6576     | 11.521     | 101.4 |  4.99
Other   |            | 0.2806     |            |       |  0.38

Nlocal:        1172.45 ave        1281 max        1066 min
Histogram: 8 11 22 37 59 44 29 25 17 4
Nghost:        5639.59 ave        9365 max        1942 min
Histogram: 3 6 25 48 63 44 30 15 8 14
Neighs:        76797.4 ave      104007 max       35480 min
Histogram: 1 1 13 22 38 46 55 44 26 10

Total # of neighbors = 19660138
Ave neighs/atom = 65.501916
Ave special neighs/atom = 1.9870130
Neighbor list builds = 500
Dangerous builds = 490

Please see the log.cite file for references relevant to this simulation

Total wall time: 0:01:15
