LAMMPS (29 Oct 2020)
  using 12 OpenMP thread(s) per MPI task
Reading data file ...
  orthogonal box = (-709.00000 -659.00000 -772.50000) to (709.00000 659.00000 772.50000)
  16 by 8 by 16 MPI processor grid
  reading atoms ...
  300146 atoms
  reading velocities ...
  300146 velocities
  scanning bonds ...
  1 = max bonds/atom
  reading bonds ...
  298197 bonds
Finding 1-2 1-3 1-4 neighbors ...
  special bond factors lj:    0.0      0.0      0.0     
  special bond factors coul:  0.0      0.0      0.0     
     2 = max # of 1-2 neighbors
     2 = max # of 1-3 neighbors
     4 = max # of 1-4 neighbors
     6 = max # of special neighbors
  special bonds CPU = 0.066 seconds
  read_data CPU = 2.445 seconds
Setting atom values ...
  9745 settings made for charge
Setting atom values ...
  1949 settings made for charge
Setting atom values ...
  5847 settings made for charge
Setting atom values ...
  3898 settings made for charge
Finding 1-2 1-3 1-4 neighbors ...
  special bond factors lj:    0.0      1.0      1.0     
  special bond factors coul:  0.0      1.0      1.0     
     2 = max # of 1-2 neighbors
     6 = max # of special neighbors
  special bonds CPU = 0.018 seconds
Neighbor list info ...
  update every 20 steps, delay 0 steps, check yes
  max neighbors/atom: 2000, page size: 100000
  master list distance cutoff = 38
  ghost atom cutoff = 38
  binsize = 11.5, bins = 124 115 135
  1 neighbor lists, perpetual/occasional/extra = 1 0 0
  (1) pair ljlambda, perpetual
      attributes: half, newton on
      pair build: half/multi/newton
      stencil: half/multi/3d/newton
      bin: standard
Setting up Verlet run ...
  Unit style    : real
  Current step  : 0
  Time step     : 10.0
Per MPI rank memory allocation (min/avg/max) = 17.41 | 17.59 | 18.67 Mbytes
Step PotEng E_bond E_vdwl E_coul KinEng Temp Press Density 
       0   -50472.541    3507.3266   -53235.227   -744.64087    268402.57          300    8.9798637  0.017080537 
     100   -18740.238    59183.385   -77172.035   -751.58796    237192.82    265.11611   0.83861604  0.017080537 
     200   -16473.353    62010.552   -77726.479   -757.42629    235597.66    263.33316   0.55706309  0.017080537 
     300   -13746.742    64490.248   -77473.569   -763.42065    233595.18    261.09494    0.1603022  0.017080537 
     400   -11344.024    66659.463   -77255.334    -748.1532    231984.89    259.29508 -0.0065292707  0.017080537 
     500   -9523.2492    68008.506   -76781.737   -750.01765    230863.39    258.04155 -0.017913195  0.017080537 
     600   -8097.5909    69263.026   -76605.658   -754.95906    230285.56     257.3957 -0.020624779  0.017080537 
     700   -6650.4585    70644.326   -76530.437   -764.34778     229584.1    256.61166 -0.091071459  0.017080537 
     800   -5691.9642    71512.026   -76455.745   -748.24474     229345.4    256.34486 -0.074252829  0.017080537 
     900   -5180.6576    72151.518   -76598.266   -733.91007    229663.77    256.70071 -0.087407438  0.017080537 
    1000   -4384.4686    72908.862   -76545.256   -748.07543    229626.41    256.65896 -0.053263997  0.017080537 
    1100   -3735.5191    73468.025   -76458.738   -744.80602    229761.85    256.81034 -0.071716807  0.017080537 
    1200   -3000.1472    74176.807   -76431.432    -745.5226    229762.08     256.8106 -0.044881848  0.017080537 
    1300   -2875.3621    74417.891   -76541.526   -751.72708    230307.27    257.41996 0.0066503189  0.017080537 
    1400   -2547.9294    74602.251   -76400.838   -749.34214    230834.09    258.00881   0.03228687  0.017080537 
    1500   -1688.0521     75281.33   -76221.069   -748.31218       230639    257.79075 -0.014964999  0.017080537 
    1600   -1478.5805    75704.346    -76439.42   -743.50631    231062.58    258.26419 -0.0024360118  0.017080537 
    1700   -1051.9419    76070.504   -76369.109   -753.33679    231302.08    258.53189 -0.081467631  0.017080537 
    1800   -740.18421    76309.492   -76310.326   -739.35086    231891.35    259.19053 -0.040327126  0.017080537 
    1900   -106.63514     76570.94   -75936.376   -741.19924    231965.08    259.27294  0.037426042  0.017080537 
    2000    242.42089    77072.346   -76087.262    -742.6625    232267.89    259.61141 -0.047079388  0.017080537 
    2100    320.23023    77128.227   -76072.301   -735.69579    232897.55    260.31519  0.031331752  0.017080537 
    2200     534.4894    77319.701   -76048.653   -736.55907    233473.18    260.95859 -0.025674663  0.017080537 
    2300    998.27572    77616.551   -75866.461   -751.81385    233718.67    261.23297  0.042334848  0.017080537 
    2400    1233.9516    78055.027   -76074.061   -747.01428    234110.25    261.67065 -0.0097058681  0.017080537 
    2500    1324.8186    78183.653   -76103.804   -755.02979    234644.19    262.26744  0.014689638  0.017080537 
    2600    2004.5715    78608.264   -75844.574   -759.11895    234659.31    262.28435 -0.025615746  0.017080537 
    2700    1854.4438    78396.226   -75772.689   -769.09378    235514.66     263.2404  0.044248906  0.017080537 
    2800    2182.8325     78678.46   -75734.629   -760.99855     235820.8    263.58257  0.065924377  0.017080537 
    2900    2301.6114    78715.575   -75661.692   -752.27217    236340.88    264.16388  0.043537602  0.017080537 
    3000    3024.5726    79297.494   -75517.512   -755.40972    236236.49     264.0472  -0.01080569  0.017080537 
    3100    3149.0781    79319.655   -75423.425   -747.15145    236831.81     264.7126 -0.018183022  0.017080537 
    3200    3498.7735    79528.512    -75286.55   -743.18883    237095.31    265.00712 -0.038415847  0.017080537 
    3300    3686.2539    79762.682   -75334.016   -742.41199     237535.3    265.49892 -0.0055301679  0.017080537 
    3400    3320.7433    79372.055   -75308.794   -742.51841    238411.03    266.47773 -0.016430155  0.017080537 
    3500    3937.9832    79720.109    -75042.38   -739.74579    238285.22    266.33711 -0.064651415  0.017080537 
    3600     4363.051    80195.359   -75078.587   -753.72035     238452.5    266.52409  0.031952706  0.017080537 
    3700    3792.8311    79740.546   -75194.324   -753.39007    239626.97    267.83682  0.062211632  0.017080537 
    3800    4228.8194    79912.421   -74930.964   -752.63791    239835.47    268.06986   0.12124318  0.017080537 
    3900    4873.4509    80467.919   -74839.579   -754.88956     239674.5    267.88995 0.0016685301  0.017080537 
    4000    4803.6493     80399.54   -74830.929    -764.9625    240310.45    268.60077 -0.030262463  0.017080537 
    4100    4852.9592    80497.238    -74870.63   -773.64785    240716.91    269.05507 -0.0046405632  0.017080537 
    4200    4739.2103    80477.687   -74961.886   -776.59054    241362.77    269.77697 -0.039788851  0.017080537 
    4300    4965.6121    80562.569   -74829.953   -767.00417    241601.51    270.04382  0.057227222  0.017080537 
    4400     5438.887    80915.391   -74714.311   -762.19252    241616.14    270.06017  0.038051729  0.017080537 
    4500    5630.3317    81121.214    -74731.78   -759.10229    241977.39    270.46394   0.02895392  0.017080537 
    4600    5856.1769    81329.201   -74715.371   -757.65321    242368.96    270.90161    0.0599677  0.017080537 
    4700    6050.5232    81392.704   -74580.064   -762.11733    242691.07    271.26164  0.018045197  0.017080537 
    4800    6491.3294    81654.577   -74403.213   -760.03384     242706.1    271.27844 -0.0019811698  0.017080537 
    4900    6113.2871    81278.623   -74403.966   -761.36985    243632.38    272.31377  0.084005971  0.017080537 
    5000    6455.3328    81576.693    -74357.82   -763.54006     243752.3     272.4478  0.037012893  0.017080537 
    5100    6515.2232    81579.393   -74301.299   -762.87032    244163.58     272.9075   0.11630199  0.017080537 
    5200    7012.7363    81929.151   -74159.621   -756.79397    244224.51     272.9756  0.041493009  0.017080537 
    5300    7237.0914     81903.11   -73920.764   -745.25506    244490.12    273.27248  0.036425567  0.017080537 
    5400    7098.7276    81796.704   -73954.968   -743.00846    245017.14    273.86155  0.070741868  0.017080537 
    5500    7732.1824    82252.007    -73774.18   -745.64444    244831.64    273.65421 -0.0050677382  0.017080537 
    5600    7389.9291     81887.51   -73747.592   -749.98945    245656.03    274.57564 0.0048728885  0.017080537 
    5700    7717.3974    82278.261   -73798.887   -761.97707    245698.96    274.62363  0.022064619  0.017080537 
    5800    7729.1248    82041.662   -73552.212   -760.32543    246153.82    275.13204   0.08904232  0.017080537 
    5900    7839.1624    82412.957   -73818.598   -755.19657    246677.42    275.71727  0.055573902  0.017080537 
    6000    8339.1802     82727.95   -73636.308   -752.46246    246648.45     275.6849  0.069273478  0.017080537 
    6100    8611.3209    82757.977   -73399.507   -747.14924    246882.37    275.94636   0.10042492  0.017080537 
    6200    8602.4027    82616.607   -73260.729   -753.47475    247361.45    276.48183  0.096132708  0.017080537 
    6300    8749.5108    82958.732    -73465.34    -743.8806    247587.69    276.73471  0.029578663  0.017080537 
    6400    8537.5607    82707.289   -73413.267   -756.46139    248239.91    277.46372 -0.010007379  0.017080537 
    6500    9338.2578    83236.876   -73136.215    -762.4027    247873.07    277.05368 -0.003670004  0.017080537 
    6600    9346.2207    83100.668   -73001.496   -752.95123    248237.85    277.46141  0.020509125  0.017080537 
    6700    9428.4629    83332.928   -73152.614   -751.85122    248533.57    277.79194 0.0037266331  0.017080537 
    6800    9834.5046    83424.977   -72825.868    -764.6042    248545.21    277.80495  0.046722594  0.017080537 
    6900     9977.357    83668.763   -72936.858   -754.54786    248864.86    278.16223  0.052023695  0.017080537 
    7000    10025.631    83556.338   -72770.564   -760.14333    249135.88    278.46516  0.099765621  0.017080537 
    7100     10242.53    83729.689   -72726.822   -760.33746    249449.14     278.8153  0.082555737  0.017080537 
    7200    10497.337    83786.225   -72530.163   -758.72471    249441.06    278.80626   0.04318645  0.017080537 
    7300    10603.826     83726.97   -72363.705   -759.43815    249623.72    279.01043  0.021591546  0.017080537 
    7400    10621.306      83756.2   -72379.452   -755.44191    250053.44    279.49073  0.049653089  0.017080537 
    7500    11141.326    84248.928   -72349.924   -757.67815    249952.13     279.3775  0.094671876  0.017080537 
    7600    11095.847    83963.939   -72114.717    -753.3743    250413.89    279.89362   0.12763154  0.017080537 
    7700    11220.608     84015.94    -72033.81   -761.52164    250688.48    280.20054  0.059371306  0.017080537 
    7800    11537.502    84419.526    -72120.15   -761.87354    250748.57     280.2677 -0.027050311  0.017080537 
    7900    11514.105    84379.331   -72106.271   -758.95417     251174.8     280.7441  0.083972574  0.017080537 
    8000    11433.947     84346.71   -72160.394   -752.36882    251686.55     281.3161  0.014989371  0.017080537 
    8100    11964.725    84451.868   -71728.332   -758.81129     251449.1     281.0507  0.018611746  0.017080537 
    8200    11877.264     84493.49   -71864.366   -751.85952    251730.73    281.36548 -0.059194484  0.017080537 
    8300    11900.153    84609.757   -71952.737   -756.86769    252231.24    281.92491  0.078141602  0.017080537 
    8400    12205.304    84703.838   -71736.261   -762.27299    252264.62    281.96223   0.03516823  0.017080537 
    8500    12609.466    85139.797   -71756.107   -774.22334    252145.03    281.82855  0.023712314  0.017080537 
    8600    12497.219    84937.734   -71666.246   -774.26863     252520.8    282.24856  0.051614765  0.017080537 
    8700    12472.788    84959.043   -71726.514   -759.74134    252975.94    282.75729  0.069534524  0.017080537 
    8800    12511.565    85056.627   -71783.087   -761.97528    253224.56    283.03517  0.054167027  0.017080537 
    8900    13232.291    85273.666   -71281.123   -760.25149    252805.82    282.56713  0.035122596  0.017080537 
    9000    12714.969    85093.647   -71625.745   -752.93316    253662.07    283.52418 -0.00084400458  0.017080537 
    9100    12992.406    85057.185   -71307.897   -756.88227    253601.87    283.45691   0.07248434  0.017080537 
    9200    12978.217    85300.235    -71562.31   -759.70769    253961.63    283.85902  0.084544887  0.017080537 
    9300    13286.857    85505.455   -71460.046   -758.55177    253911.39    283.80286   0.06051148  0.017080537 
    9400    13643.631    85506.346    -71102.51   -760.20538    253880.78    283.76865  0.061872078  0.017080537 
    9500    13284.831    85089.209    -71045.81   -758.56837     254369.3    284.31468   0.11080165  0.017080537 
    9600    13660.258    85435.914   -71010.508   -765.14776    254196.62    284.12167   0.10983242  0.017080537 
    9700    13303.366    85285.592   -71224.941   -757.28592    254988.99    285.00732  0.039355267  0.017080537 
    9800    13441.154    85180.519   -70987.809   -751.55677    255090.69    285.12099  0.055805488  0.017080537 
    9900    13848.052    85509.786   -70907.324   -754.40988    254912.22    284.92152  0.077857519  0.017080537 
   10000     13735.76    85464.284   -70977.593   -750.93181    255291.54    285.34549  0.070270524  0.017080537 
Loop time of 17.5775 on 24576 procs for 10000 steps with 300146 atoms

Performance: 491.538 ns/day, 0.049 hours/ns, 568.909 timesteps/s
939.4% CPU use with 2048 MPI tasks x 12 OpenMP threads

MPI task timing breakdown:
Section |  min time  |  avg time  |  max time  |%varavg| %total
---------------------------------------------------------------
Pair    | 1.9201     | 5.3696     | 7.847      |  50.8 | 30.55
Bond    | 0.09537    | 0.1103     | 0.12183    |   1.4 |  0.63
Neigh   | 0.91953    | 1.0757     | 1.1907     |   4.6 |  6.12
Comm    | 4.758      | 7.5291     | 11.561     |  44.3 | 42.83
Output  | 0.017565   | 0.031906   | 0.050468   |   3.4 |  0.18
Modify  | 1.6674     | 3.2319     | 4.6306     |  25.7 | 18.39
Other   |            | 0.229      |            |       |  1.30

Nlocal:        146.556 ave         151 max         142 min
Histogram: 1 9 60 303 600 673 305 81 14 2
Nghost:        2951.42 ave        4830 max         456 min
Histogram: 7 19 148 306 402 278 227 291 296 74
Neighs:        9600.66 ave       15124 max        2908 min
Histogram: 17 75 161 236 296 339 395 383 136 10

Total # of neighbors = 19662148
Ave neighs/atom = 65.508612
Ave special neighs/atom = 1.9870130
Neighbor list builds = 500
Dangerous builds = 490

Please see the log.cite file for references relevant to this simulation

Total wall time: 0:00:20
