LAMMPS (29 Oct 2020)
  using 12 OpenMP thread(s) per MPI task
Reading data file ...
  orthogonal box = (-709.00000 -659.00000 -772.50000) to (709.00000 659.00000 772.50000)
  4 by 2 by 4 MPI processor grid
  reading atoms ...
  300146 atoms
  reading velocities ...
  300146 velocities
  scanning bonds ...
  1 = max bonds/atom
  reading bonds ...
  298197 bonds
Finding 1-2 1-3 1-4 neighbors ...
  special bond factors lj:    0.0      0.0      0.0     
  special bond factors coul:  0.0      0.0      0.0     
     2 = max # of 1-2 neighbors
     2 = max # of 1-3 neighbors
     4 = max # of 1-4 neighbors
     6 = max # of special neighbors
  special bonds CPU = 0.066 seconds
  read_data CPU = 2.246 seconds
Setting atom values ...
  9745 settings made for charge
Setting atom values ...
  1949 settings made for charge
Setting atom values ...
  5847 settings made for charge
Setting atom values ...
  3898 settings made for charge
Finding 1-2 1-3 1-4 neighbors ...
  special bond factors lj:    0.0      1.0      1.0     
  special bond factors coul:  0.0      1.0      1.0     
     2 = max # of 1-2 neighbors
     6 = max # of special neighbors
  special bonds CPU = 0.031 seconds
Neighbor list info ...
  update every 20 steps, delay 0 steps, check yes
  max neighbors/atom: 2000, page size: 100000
  master list distance cutoff = 38
  ghost atom cutoff = 38
  binsize = 11.5, bins = 124 115 135
  1 neighbor lists, perpetual/occasional/extra = 1 0 0
  (1) pair ljlambda, perpetual
      attributes: half, newton on
      pair build: half/multi/newton
      stencil: half/multi/3d/newton
      bin: standard
Setting up Verlet run ...
  Unit style    : real
  Current step  : 0
  Time step     : 10.0
Per MPI rank memory allocation (min/avg/max) = 33.64 | 38.30 | 72.05 Mbytes
Step PotEng E_bond E_vdwl E_coul KinEng Temp Press Density 
       0   -50472.541    3507.3266   -53235.227   -744.64087    268402.57          300    8.9798637  0.017080537 
     100   -18749.579    59221.176   -77218.727   -752.02866    237305.95    265.24256   0.83070275  0.017080537 
     200   -16473.095    61988.995   -77705.386   -756.70404    235703.82    263.45182    0.5585564  0.017080537 
     300   -13704.291    64426.787   -77374.906   -756.17142    233680.97    261.19084   0.18018151  0.017080537 
     400   -11183.682    66742.237   -77174.629   -751.28981    231841.18    259.13446 -0.015631587  0.017080537 
     500   -9301.5906    68426.634   -76982.634   -745.59102     230736.1    257.89928  -0.11328434  0.017080537 
     600   -7845.6745    69698.958   -76795.215    -749.4176     230073.3    257.15845 -0.099152801  0.017080537 
     700   -6923.9539    70448.951   -76618.845   -754.05932    229910.21    256.97616 -0.031348514  0.017080537 
     800   -5718.2243    71475.602   -76434.591   -759.23495     229459.4    256.47228 -0.075582185  0.017080537 
     900   -4759.4839    72271.859   -76270.794   -760.54874    229404.73    256.41118  -0.04463552  0.017080537 
    1000   -4298.2436    72876.342   -76426.366   -748.21911    229716.04    256.75913 -0.067664358  0.017080537 
    1100   -3674.8051    73441.636   -76361.721   -754.72027    229950.43    257.02112 -0.016276832  0.017080537 
    1200   -3147.3265     73963.68   -76358.205   -752.80162    230129.11    257.22083 -0.018825681  0.017080537 
    1300   -2257.8593     74651.41   -76150.474   -758.79518    230085.33     257.1719 -0.089662413  0.017080537 
    1400   -2529.2578    74553.062   -76326.236   -756.08391    231173.73    258.38843  0.012591287  0.017080537 
    1500   -1733.2641    75209.766   -76185.747   -757.28355    231146.84    258.35837 -0.026979398  0.017080537 
    1600   -1432.7511    75435.686   -76107.943   -760.49379    231494.23    258.74666 0.0013979626  0.017080537 
    1700   -987.18743    75837.933   -76067.344   -757.77683    231782.06    259.06837 -0.0046363265  0.017080537 
    1800   -413.63403    76357.544   -76026.322   -744.85572    231927.16    259.23056  0.049149919  0.017080537 
    1900   -410.12486     76452.01   -76117.776   -744.35906    232571.47    259.95072  0.017628323  0.017080537 
    2000    242.91474    76976.878   -75989.509   -744.45368    232592.88    259.97465 -0.021992396  0.017080537 
    2100    905.55911    77522.797   -75864.059    -753.1785    232670.97    260.06193  0.018464087  0.017080537 
    2200     750.3179    77378.633   -75872.513   -755.80205    233525.53     261.0171  0.030752614  0.017080537 
    2300    777.62762    77399.297   -75870.799   -750.87046    234098.67    261.65771  0.043612905  0.017080537 
    2400    1176.4509      77776.1   -75845.524   -754.12554    234408.21    262.00368 -0.021452598  0.017080537 
    2500    1556.0537    78113.491   -75808.276    -749.1615    234717.85    262.34978 -0.062176727  0.017080537 
    2600    1839.4912    78251.358   -75661.758   -750.10939    235180.01    262.86635  0.014224727  0.017080537 
    2700    2344.6446    78570.151   -75473.087   -752.41948    235359.53      263.067 -0.022363882  0.017080537 
    2800    2396.7029     78814.53   -75674.297   -743.53045    235927.95    263.70234 0.0018393505  0.017080537 
    2900    2541.4546    78845.397   -75557.087   -746.85533    236492.67    264.33354 -0.018664143  0.017080537 
    3000    2616.3072    79008.071   -75630.163   -761.60026    237007.21    264.90865  0.011399299  0.017080537 
    3100    2979.0674     79311.93   -75567.765   -765.09735    237143.16    265.06061 0.0013051492  0.017080537 
    3200    3187.0228    79363.342   -75414.807   -761.51147    237525.66    265.48813  0.033039296  0.017080537 
    3300    3252.3894    79630.935   -75632.016   -746.52939    238183.02    266.22289  0.040745786  0.017080537 
    3400    3409.3655    79575.802   -75414.606    -751.8303    238606.59    266.69632  0.069370212  0.017080537 
    3500    3689.4608    79799.267   -75367.532   -742.27413    238959.16    267.09039 0.0066739847  0.017080537 
    3600    3999.2575    79945.427   -75207.513    -738.6558    239251.53    267.41719   0.02347097  0.017080537 
    3700    4149.6944    80154.722   -75268.531   -736.49598    239683.42    267.89992 -0.066900441  0.017080537 
    3800    4214.4184    80128.344   -75168.651   -745.27434       240215    268.49407  0.017435809  0.017080537 
    3900    5191.2129    80799.065   -74866.317   -741.53536    239856.88     268.0938  0.040746474  0.017080537 
    4000    4883.4976    80578.616   -74955.641   -739.47733    240726.39    269.06567  0.020580407  0.017080537 
    4100    5290.2832    80848.215   -74812.623   -745.30859    240898.62    269.25817 -0.018908881  0.017080537 
    4200    5395.7008    80974.357   -74840.119   -738.53762    241442.85    269.86648  0.014851858  0.017080537 
    4300    5316.1133    80836.042   -74776.854   -743.07472    242112.29    270.61473 -0.015305244  0.017080537 
    4400    5636.8013    81072.177   -74697.018   -738.35786    242298.36    270.82269  0.079017609  0.017080537 
    4500    5749.7723     81157.23   -74679.206    -728.2524    242835.85    271.42346  0.096128604  0.017080537 
    4600    6041.9785    81482.364   -74705.928   -734.45789    242995.76     271.6022  0.038784924  0.017080537 
    4700     6295.895    81483.594   -74455.347    -732.3523    243208.79     271.8403  0.093546372  0.017080537 
    4800    6607.0147    81769.467   -74418.242   -744.21077    243396.46    272.05008  0.080722338  0.017080537 
    4900    6733.2722    81675.671   -74195.734   -746.66544    243806.73    272.50864   0.12483654  0.017080537 
    5000    6855.6437    81905.313    -74312.89   -736.77928    244234.67    272.98696  0.039538948  0.017080537 
    5100    7033.4784    81957.613   -74184.654   -739.48062    244709.77    273.51798  0.054546228  0.017080537 
    5200    7351.4395    82225.805   -74143.169   -731.19624    244931.71    273.76606  0.078180974  0.017080537 
    5300     7373.673    82192.431   -74080.155   -738.60376    245509.34    274.41169  0.033714295  0.017080537 
    5400    7748.0308    82528.363   -74036.771   -743.56059     245586.1    274.49749  0.026735202  0.017080537 
    5500    7833.4192    82660.642   -74077.779    -749.4437    245913.23    274.86313 -0.0044016088  0.017080537 
    5600    8130.0844    82837.318   -73961.201   -746.03309    246047.45    275.01315 -0.0077862457  0.017080537 
    5700    7973.9069     82469.51   -73749.466   -746.13728    246600.09    275.63085  0.040721926  0.017080537 
    5800    8324.3223    82488.521   -73426.615   -737.58366    246745.62    275.79351  0.074836376  0.017080537 
    5900    8655.8206    82865.071   -73460.444   -748.80627    246771.25    275.82215  0.082225366  0.017080537 
    6000    8634.8042    82789.634   -73406.119    -748.7115    247310.01    276.42434  0.091911922  0.017080537 
    6100    8837.5162    83001.049    -73411.26   -752.27216    247460.82     276.5929  0.027394987  0.017080537 
    6200    8843.2681     83105.16   -73510.614   -751.27793    247821.26    276.99578  0.038599607  0.017080537 
    6300    9185.5118    83174.075   -73241.326   -747.23723    247920.49    277.10669  0.081695127  0.017080537 
    6400    9416.9515    83132.613   -72966.605   -749.05646    248211.33    277.43176  0.059516712  0.017080537 
    6500    9413.3221    83326.816   -73159.722   -753.77217     248655.9    277.92868  0.027218304  0.017080537 
    6600     9868.487    83635.459   -73016.918   -750.05405    248511.44     277.7672  0.017381126  0.017080537 
    6700    10074.666    83656.666   -72835.582   -746.41758    248687.76    277.96428  0.023125794  0.017080537 
    6800    9956.1594    83372.446   -72660.132   -756.15509    249179.41    278.51381  0.087558381  0.017080537 
    6900    10492.333     83938.93   -72692.074   -754.52272    248963.04    278.27198  0.013021599  0.017080537 
    7000    10440.095    83940.243   -72741.926   -758.22114    249508.84    278.88202  0.037296054  0.017080537 
    7100    10883.802    84186.203   -72555.336   -747.06479    249357.69    278.71308  0.031098114  0.017080537 
    7200    11215.789    84520.052   -72547.587   -756.67658    249357.99    278.71342  -0.01153027  0.017080537 
    7300    11008.849    84365.443   -72597.573   -759.02031    249987.66    279.41721 -0.0035154697  0.017080537 
    7400     10825.53     84027.86   -72449.221   -753.10845    250497.75    279.98735  0.052810112  0.017080537 
    7500    11227.043    84261.157   -72279.836   -754.27799    250434.53     279.9167  0.064372507  0.017080537 
    7600    11273.467     84403.13   -72379.198   -750.46537    250502.54    279.99271  0.039549806  0.017080537 
    7700    11428.968    84551.543   -72373.177   -749.39889    250653.07    280.16095 0.0094174293  0.017080537 
    7800    11243.254    84142.676   -72149.738    -749.6844    251243.07    280.82042  0.090771838  0.017080537 
    7900    11582.558    84445.164   -72110.659   -751.94741    251300.53    280.88464  0.093043882  0.017080537 
    8000     11642.84    84453.235   -72057.915   -752.47978    251666.79    281.29401  0.031240653  0.017080537 
    8100    11598.156    84262.348   -71908.929   -755.26263     251958.7    281.62029   0.08546257  0.017080537 
    8200    11863.371    84623.316   -71996.275   -763.67032    252056.59     281.7297  0.052461805  0.017080537 
    8300    11948.325    84607.479   -71894.824   -764.33053    252225.94    281.91899  0.060217632  0.017080537 
    8400    12303.749    84780.252   -71708.568   -767.93493    252181.03    281.86879  0.074883302  0.017080537 
    8500    12473.629    84957.515   -71712.199   -771.68708    252386.19     282.0981   0.12986332  0.017080537 
    8600      12526.6    84924.804   -71626.798    -771.4057    252679.92    282.42642   0.11288447  0.017080537 
    8700    12885.619    85084.078   -71432.686   -765.77315    252787.78    282.54698  0.057108419  0.017080537 
    8800    13021.839    85186.302   -71397.397   -767.06518    252797.25    282.55755  0.073791432  0.017080537 
    8900    12951.757    85049.071   -71332.414   -764.89944    253145.54    282.94686   0.11502484  0.017080537 
    9000    13050.067    85092.665    -71278.53   -764.06879     253446.6    283.28336  0.070866118  0.017080537 
    9100    12829.416    84839.979   -71247.926   -762.63648    253975.67     283.8747   0.07913643  0.017080537 
    9200    13556.937    85472.503   -71158.035   -757.53176    253555.79     283.4054  0.041515052  0.017080537 
    9300    13884.645    85622.396   -70977.448   -760.30357    253464.35     283.3032  0.069988568  0.017080537 
    9400    13622.079    85588.704   -71206.758   -759.86648    253935.88    283.83023  0.034397335  0.017080537 
    9500    13973.263    85521.778   -70788.284   -760.23051    253862.51    283.74823  0.099951629  0.017080537 
    9600    13679.192    85282.974   -70846.622   -757.15951    254446.73    284.40123  0.092014739  0.017080537 
    9700    13658.939    85289.318   -70877.802   -752.57785    254743.66    284.73311  0.069208812  0.017080537 
    9800    13799.159     85543.05   -70990.326   -753.56439    254813.65    284.81134  0.058716022  0.017080537 
    9900     13721.83    85333.286   -70864.485   -746.97085    254940.25    284.95284  0.025990737  0.017080537 
   10000    14346.078    85855.473    -70758.65   -750.74584    254570.45     284.5395 0.0026154523  0.017080537 
Loop time of 469.538 on 384 procs for 10000 steps with 300146 atoms

Performance: 18.401 ns/day, 1.304 hours/ns, 21.298 timesteps/s
279.2% CPU use with 32 MPI tasks x 12 OpenMP threads

MPI task timing breakdown:
Section |  min time  |  avg time  |  max time  |%varavg| %total
---------------------------------------------------------------
Pair    | 283.78     | 338.01     | 396.61     | 161.7 | 71.99
Bond    | 7.0617     | 7.2651     | 7.5436     |   4.2 |  1.55
Neigh   | 43.081     | 43.282     | 43.484     |   2.1 |  9.22
Comm    | 7.6001     | 65.608     | 120.09     | 365.9 | 13.97
Output  | 0.015957   | 0.029036   | 0.21136    |  19.3 |  0.01
Modify  | 10.838     | 11.998     | 25.473     |  70.5 |  2.56
Other   |            | 3.35       |            |       |  0.71

Nlocal:        9379.56 ave       10128 max        8796 min
Histogram: 2 5 1 3 10 6 2 0 2 1
Nghost:        12108.9 ave       18132 max        8062 min
Histogram: 6 1 4 6 7 2 3 0 1 2
Neighs:       612137.0 ave      723334 max      521301 min
Histogram: 3 4 2 4 9 3 1 1 2 3

Total # of neighbors = 19588383
Ave neighs/atom = 65.262849
Ave special neighs/atom = 1.9870130
Neighbor list builds = 500
Dangerous builds = 490

Please see the log.cite file for references relevant to this simulation

Total wall time: 0:07:52
