LAMMPS (29 Oct 2020)
  using 12 OpenMP thread(s) per MPI task
Reading data file ...
  orthogonal box = (-709.00000 -659.00000 -772.50000) to (709.00000 659.00000 772.50000)
  4 by 2 by 4 MPI processor grid
  reading atoms ...
  300146 atoms
  reading velocities ...
  300146 velocities
  scanning bonds ...
  1 = max bonds/atom
  reading bonds ...
  298197 bonds
Finding 1-2 1-3 1-4 neighbors ...
  special bond factors lj:    0.0      0.0      0.0     
  special bond factors coul:  0.0      0.0      0.0     
     2 = max # of 1-2 neighbors
     2 = max # of 1-3 neighbors
     4 = max # of 1-4 neighbors
     6 = max # of special neighbors
  special bonds CPU = 0.065 seconds
  read_data CPU = 2.234 seconds
Setting atom values ...
  9745 settings made for charge
Setting atom values ...
  1949 settings made for charge
Setting atom values ...
  5847 settings made for charge
Setting atom values ...
  3898 settings made for charge
Finding 1-2 1-3 1-4 neighbors ...
  special bond factors lj:    0.0      1.0      1.0     
  special bond factors coul:  0.0      1.0      1.0     
     2 = max # of 1-2 neighbors
     6 = max # of special neighbors
  special bonds CPU = 0.030 seconds
Neighbor list info ...
  update every 20 steps, delay 0 steps, check yes
  max neighbors/atom: 2000, page size: 100000
  master list distance cutoff = 38
  ghost atom cutoff = 38
  binsize = 11.5, bins = 124 115 135
  1 neighbor lists, perpetual/occasional/extra = 1 0 0
  (1) pair ljlambda, perpetual
      attributes: half, newton on
      pair build: half/multi/newton
      stencil: half/multi/3d/newton
      bin: standard
Setting up Verlet run ...
  Unit style    : real
  Current step  : 0
  Time step     : 10.0
Per MPI rank memory allocation (min/avg/max) = 33.64 | 38.30 | 72.05 Mbytes
Step PotEng E_bond E_vdwl E_coul KinEng Temp Press Density 
       0   -50472.541    3507.3266   -53235.227   -744.64087    268402.57          300    8.9798637  0.017080537 
     100   -18749.579    59221.176   -77218.727   -752.02866    237305.95    265.24256   0.83070275  0.017080537 
     200   -16473.095    61988.995   -77705.386   -756.70404    235703.82    263.45182    0.5585564  0.017080537 
     300   -13704.291    64426.787   -77374.906   -756.17142    233680.97    261.19084   0.18018151  0.017080537 
     400   -11183.682    66742.237   -77174.629   -751.28981    231841.18    259.13446 -0.015631587  0.017080537 
     500   -9301.5906    68426.634   -76982.634   -745.59102     230736.1    257.89928  -0.11328434  0.017080537 
     600   -7845.6745    69698.958   -76795.215    -749.4176     230073.3    257.15845 -0.099152801  0.017080537 
     700   -6923.9539    70448.951   -76618.845   -754.05932    229910.21    256.97616 -0.031348514  0.017080537 
     800   -5718.2243    71475.602   -76434.591   -759.23495     229459.4    256.47228 -0.075582185  0.017080537 
     900   -4759.4839    72271.859   -76270.794   -760.54874    229404.73    256.41118  -0.04463552  0.017080537 
    1000   -4298.2436    72876.342   -76426.366   -748.21911    229716.04    256.75913 -0.067664358  0.017080537 
    1100   -3674.8051    73441.636   -76361.721   -754.72027    229950.43    257.02112 -0.016276832  0.017080537 
    1200   -3147.3265     73963.68   -76358.205   -752.80162    230129.11    257.22083 -0.018825681  0.017080537 
    1300   -2257.8593     74651.41   -76150.474   -758.79518    230085.33     257.1719 -0.089662413  0.017080537 
    1400   -2529.2578    74553.062   -76326.236   -756.08391    231173.73    258.38843  0.012591287  0.017080537 
    1500   -1733.2641    75209.766   -76185.747   -757.28355    231146.84    258.35837 -0.026979398  0.017080537 
    1600   -1432.7511    75435.686   -76107.943   -760.49379    231494.23    258.74666 0.0013979626  0.017080537 
    1700   -987.18743    75837.933   -76067.344   -757.77683    231782.06    259.06837 -0.0046363265  0.017080537 
    1800   -413.63403    76357.544   -76026.322   -744.85572    231927.16    259.23056  0.049149919  0.017080537 
    1900   -410.12486     76452.01   -76117.776   -744.35906    232571.47    259.95072  0.017628323  0.017080537 
    2000    242.91474    76976.878   -75989.509   -744.45368    232592.88    259.97465 -0.021992397  0.017080537 
    2100    905.55911    77522.797   -75864.059    -753.1785    232670.97    260.06193  0.018464087  0.017080537 
    2200     750.3179    77378.633   -75872.513   -755.80205    233525.53     261.0171  0.030752614  0.017080537 
    2300    777.62763    77399.297   -75870.799   -750.87046    234098.67    261.65771  0.043612906  0.017080537 
    2400    1176.4509      77776.1   -75845.524   -754.12554    234408.21    262.00368 -0.021452597  0.017080537 
    2500    1556.0537    78113.491   -75808.276    -749.1615    234717.85    262.34978 -0.062176727  0.017080537 
    2600    1839.4912    78251.358   -75661.758   -750.10939    235180.01    262.86635  0.014224729  0.017080537 
    2700    2344.6446    78570.151   -75473.087   -752.41948    235359.53      263.067 -0.022363872  0.017080537 
    2800    2396.7026     78814.53   -75674.297   -743.53046    235927.95    263.70234 0.0018393592  0.017080537 
    2900    2541.4543    78845.396   -75557.087   -746.85533    236492.67    264.33354 -0.018664243  0.017080537 
    3000    2616.3095    79008.071   -75630.162   -761.60025    237007.21    264.90865  0.011399602  0.017080537 
    3100    2979.0645    79311.928   -75567.766   -765.09733    237143.16    265.06061 0.0013054181  0.017080537 
    3200    3187.0267    79363.344   -75414.806   -761.51145    237525.65    265.48813  0.033037447  0.017080537 
    3300    3252.3997    79630.945   -75632.016   -746.52941    238183.01    266.22287  0.040745835  0.017080537 
    3400    3409.3852    79575.814   -75414.599   -751.83038    238606.57    266.69629  0.069372495  0.017080537 
    3500    3689.4739    79799.277   -75367.529   -742.27418    238959.15    267.09038 0.0066778051  0.017080537 
    3600    3999.2798    79945.411   -75207.474   -738.65734    239251.52    267.41717  0.023479065  0.017080537 
    3700    4149.6433    80154.717   -75268.578   -736.49538     239683.5    267.90001 -0.066925863  0.017080537 
    3800    4215.0004    80128.577   -75168.307    -745.2689    240214.47    268.49349  0.017482723  0.017080537 
    3900    5161.6474    80775.164   -74872.267   -741.24984    239882.16    268.12206   0.04074757  0.017080537 
    4000    4760.4427    80479.519   -74979.427   -739.64949    240824.36    269.17517  0.026247057  0.017080537 
    4100    5336.7835      80866.1   -74782.309   -747.00833    240850.86    269.20479 -0.0054827961  0.017080537 
    4200    5280.5537    80816.967   -74795.577   -740.83655    241473.18    269.90038 0.0056847625  0.017080537 
    4300    5243.2249    80860.585   -74880.889   -736.47055    242147.75    270.65435 -0.066620988  0.017080537 
    4400    5041.6186    80550.597   -74767.419   -741.55984    242925.65    271.52383  0.073174299  0.017080537 
    4500    5468.3023    81017.829   -74813.164   -736.36285     242973.5    271.57732  0.058482733  0.017080537 
    4600    5620.8148    81236.478   -74883.714   -731.94997    243335.81    271.98229  0.025747585  0.017080537 
    4700     5816.986    81273.878     -74716.7   -740.19185    243639.22    272.32141  0.022035949  0.017080537 
    4800    6291.1527    81395.369   -74366.792   -737.42466    243618.68    272.29845  0.049959195  0.017080537 
    4900    6210.3677    81598.354   -74645.799   -742.18757    244242.97    272.99623 -0.0068919936  0.017080537 
    5000    6393.5359    81612.349   -74472.684   -746.12849    244534.53    273.32212   0.08627345  0.017080537 
    5100    6979.4412    81968.095   -74245.373     -743.281    244495.55    273.27855  0.087134339  0.017080537 
    5200    7097.7266    82020.259   -74178.395   -744.13735    244905.93    273.73724  0.059854956  0.017080537 
    5300    7230.8824    82188.903   -74214.773   -743.24758    245170.83    274.03332 -0.0048997242  0.017080537 
    5400    7223.7436     81934.08   -73965.093   -745.24337    245621.21    274.53673  0.039408006  0.017080537 
    5500    7723.3753    82350.486   -73875.707   -751.40336     245645.4    274.56377  0.073969045  0.017080537 
    5600    7942.2819     82544.39    -73853.64    -748.4683    246004.28    274.96489  0.046035686  0.017080537 
    5700    8117.9616    82486.252   -73624.469   -743.82123    246282.94    275.27636   0.08562808  0.017080537 
    5800     8383.495    82520.641   -73385.647   -751.49923    246388.35    275.39418   0.15856294  0.017080537 
    5900    8515.3747    82965.997   -73698.605   -752.01696    246784.36    275.83681 -0.025979804  0.017080537 
    6000    9056.9209    83292.474   -73483.934   -751.61966    246659.35    275.69708 -0.024874773  0.017080537 
    6100     8972.507    83012.255     -73282.8    -756.9475    247127.14    276.21994  0.051148979  0.017080537 
    6200    8930.0793    82987.457   -73313.054   -744.32353    247548.19    276.69056  0.016976326  0.017080537 
    6300    9261.1367    83064.693   -73059.363    -744.1933    247624.49    276.77584  0.085587087  0.017080537 
    6400    9143.9078    83078.141   -73182.445   -751.78733    248126.89    277.33739  0.069996491  0.017080537 
    6500    9361.0791    83267.481   -73164.435   -741.96679    248279.31    277.50775  0.091359557  0.017080537 
    6600    9600.5092    83350.001   -72995.115   -754.37735    248351.88    277.58886   0.14117806  0.017080537 
    6700    9448.4283    83285.554   -73087.753   -749.37322    249006.83    278.32092  0.054868303  0.017080537 
    6800    9619.1594    83362.204   -72994.621   -748.42324    249298.52    278.64695  0.063764257  0.017080537 
    6900    9953.6276    83424.131   -72710.915   -759.58845    249420.41    278.78318   0.08739127  0.017080537 
    7000    9939.0973    83553.903   -72862.028   -752.77824    249820.72    279.23062  0.017152153  0.017080537 
    7100    10222.753    83668.132   -72682.148   -763.23103    249961.19    279.38762   0.04705472  0.017080537 
    7200    10255.485    83495.291   -72487.403   -752.40318    250295.17    279.76093   0.11274071  0.017080537 
    7300     10281.47    83760.703   -72739.474   -739.75872    250554.47    280.05075  0.021512563  0.017080537 
    7400    10921.285     83801.44   -72127.357   -752.79822     250355.6    279.82847   0.14292927  0.017080537 
    7500    10844.028    84010.202   -72421.443   -744.73096    250896.73    280.43331  0.030187772  0.017080537 
    7600    11540.007    84323.152   -72031.877   -751.26715    250614.26    280.11758   0.10913086  0.017080537 
    7700    11480.799    84383.363   -72148.435   -754.12866    250966.42    280.51119 -0.020888678  0.017080537 
    7800    11623.073    84511.397   -72140.797   -747.52735    251123.85    280.68716  -0.06273031  0.017080537 
    7900    11798.583     84516.44   -71972.155   -745.70213    251321.62    280.90821  0.082769172  0.017080537 
    8000     11729.92    84442.583   -71956.593   -756.06976     251698.4    281.32934  0.054698584  0.017080537 
    8100    12373.067     85099.49   -71964.532   -761.89074    251475.73    281.08047  0.032631811  0.017080537 
    8200     11644.97    84314.774   -71919.238   -750.56618    252606.32    282.34416    0.1012124  0.017080537 
    8300    11867.831    84367.288   -71756.501   -742.95596     252653.4    282.39677    0.1058781  0.017080537 
    8400    12528.421    84962.738   -71696.332   -737.98589    252324.19    282.02881   0.04933134  0.017080537 
    8500    12687.857    85023.908   -71586.727   -749.32403    252545.53    282.27621  0.050228531  0.017080537 
    8600    12592.751    84866.231   -71532.433   -741.04665    252956.44    282.73549   0.07735022  0.017080537 
    8700    12948.689     85205.92   -71497.241   -759.98961     252905.4    282.67844   0.03741561  0.017080537 
    8800    12887.799    84983.474   -71334.386   -761.28943    253365.14     283.1923   0.10367813  0.017080537 
    8900    13013.067    85111.233   -71338.677    -759.4897     253653.8    283.51494  0.078935795  0.017080537 
    9000    13144.065    85166.112   -71270.383   -751.66317     253773.6    283.64885  0.020857146  0.017080537 
    9100    13384.374    85096.461   -70952.178   -759.90921    253861.02    283.74657   0.14747301  0.017080537 
    9200    13382.812    85271.477   -71118.022   -770.64304    254126.65    284.04346  0.042651041  0.017080537 
    9300    13566.502    85374.234   -71043.861   -763.87128    254139.12     284.0574 0.0060611145  0.017080537 
    9400    13660.271    85192.563   -70766.823   -765.46867    254406.93    284.35674   0.10580849  0.017080537 
    9500    13840.934    85314.891   -70702.068   -771.88819    254516.49    284.47919   0.08691851  0.017080537 
    9600    13819.979    85347.047   -70762.291    -764.7773    254853.72    284.85613  0.091886043  0.017080537 
    9700    14113.283    85455.253   -70582.588   -759.38257    254919.91    284.93011  0.054049724  0.017080537 
    9800    13854.337    85166.485   -70544.693   -767.45523    255418.64    285.48755   0.03495132  0.017080537 
    9900    14435.165    85705.048   -70500.794   -769.08895    255002.29    285.02219  0.096864055  0.017080537 
   10000    14354.589    85642.899   -70515.677   -772.63338    255305.87     285.3615  0.024027809  0.017080537 
Loop time of 473.119 on 384 procs for 10000 steps with 300146 atoms

Performance: 18.262 ns/day, 1.314 hours/ns, 21.136 timesteps/s
277.7% CPU use with 32 MPI tasks x 12 OpenMP threads

MPI task timing breakdown:
Section |  min time  |  avg time  |  max time  |%varavg| %total
---------------------------------------------------------------
Pair    | 278.37     | 337.78     | 400.76     | 164.7 | 71.39
Bond    | 7.067      | 7.2686     | 7.554      |   4.1 |  1.54
Neigh   | 43.227     | 43.42      | 43.616     |   2.0 |  9.18
Comm    | 6.9731     | 69.166     | 129.08     | 362.8 | 14.62
Output  | 0.015319   | 0.03172    | 0.31279    |  28.4 |  0.01
Modify  | 10.723     | 12.107     | 32.38      | 105.1 |  2.56
Other   |            | 3.35       |            |       |  0.71

Nlocal:        9379.56 ave       10150 max        8880 min
Histogram: 3 1 5 8 8 2 2 2 0 1
Nghost:        12114.2 ave       17737 max        8282 min
Histogram: 5 2 4 6 7 2 2 1 1 2
Neighs:       610476.0 ave      733734 max      515063 min
Histogram: 2 4 4 6 5 2 3 2 3 1

Total # of neighbors = 19535219
Ave neighs/atom = 65.085722
Ave special neighs/atom = 1.9870130
Neighbor list builds = 500
Dangerous builds = 490

Please see the log.cite file for references relevant to this simulation

Total wall time: 0:07:55
