LAMMPS (29 Oct 2020)
  using 12 OpenMP thread(s) per MPI task
Reading data file ...
  orthogonal box = (-709.00000 -659.00000 -772.50000) to (709.00000 659.00000 772.50000)
  4 by 2 by 4 MPI processor grid
  reading atoms ...
  300146 atoms
  reading velocities ...
  300146 velocities
  scanning bonds ...
  1 = max bonds/atom
  reading bonds ...
  298197 bonds
Finding 1-2 1-3 1-4 neighbors ...
  special bond factors lj:    0.0      0.0      0.0     
  special bond factors coul:  0.0      0.0      0.0     
     2 = max # of 1-2 neighbors
     2 = max # of 1-3 neighbors
     4 = max # of 1-4 neighbors
     6 = max # of special neighbors
  special bonds CPU = 0.065 seconds
  read_data CPU = 2.229 seconds
Setting atom values ...
  9745 settings made for charge
Setting atom values ...
  1949 settings made for charge
Setting atom values ...
  5847 settings made for charge
Setting atom values ...
  3898 settings made for charge
Finding 1-2 1-3 1-4 neighbors ...
  special bond factors lj:    0.0      1.0      1.0     
  special bond factors coul:  0.0      1.0      1.0     
     2 = max # of 1-2 neighbors
     6 = max # of special neighbors
  special bonds CPU = 0.031 seconds
Neighbor list info ...
  update every 20 steps, delay 0 steps, check yes
  max neighbors/atom: 2000, page size: 100000
  master list distance cutoff = 38
  ghost atom cutoff = 38
  binsize = 11.5, bins = 124 115 135
  1 neighbor lists, perpetual/occasional/extra = 1 0 0
  (1) pair ljlambda, perpetual
      attributes: half, newton on
      pair build: half/multi/newton
      stencil: half/multi/3d/newton
      bin: standard
Setting up Verlet run ...
  Unit style    : real
  Current step  : 0
  Time step     : 10.0
Per MPI rank memory allocation (min/avg/max) = 33.64 | 38.30 | 72.05 Mbytes
Step PotEng E_bond E_vdwl E_coul KinEng Temp Press Density 
       0   -50472.541    3507.3266   -53235.227   -744.64087    268402.57          300    8.9798637  0.017080537 
     100   -18749.579    59221.176   -77218.727   -752.02866    237305.95    265.24256   0.83070275  0.017080537 
     200   -16473.095    61988.995   -77705.386   -756.70404    235703.82    263.45182    0.5585564  0.017080537 
     300   -13704.291    64426.787   -77374.906   -756.17142    233680.97    261.19084   0.18018151  0.017080537 
     400   -11183.682    66742.237   -77174.629   -751.28981    231841.18    259.13446 -0.015631587  0.017080537 
     500   -9301.5906    68426.634   -76982.634   -745.59102     230736.1    257.89928  -0.11328434  0.017080537 
     600   -7845.6745    69698.958   -76795.215    -749.4176     230073.3    257.15845 -0.099152801  0.017080537 
     700   -6923.9539    70448.951   -76618.845   -754.05932    229910.21    256.97616 -0.031348514  0.017080537 
     800   -5718.2243    71475.602   -76434.591   -759.23495     229459.4    256.47228 -0.075582185  0.017080537 
     900   -4759.4839    72271.859   -76270.794   -760.54874    229404.73    256.41118  -0.04463552  0.017080537 
    1000   -4298.2436    72876.342   -76426.366   -748.21911    229716.04    256.75913 -0.067664358  0.017080537 
    1100   -3674.8051    73441.636   -76361.721   -754.72027    229950.43    257.02112 -0.016276832  0.017080537 
    1200   -3147.3265     73963.68   -76358.205   -752.80162    230129.11    257.22083 -0.018825681  0.017080537 
    1300   -2257.8593     74651.41   -76150.474   -758.79518    230085.33     257.1719 -0.089662413  0.017080537 
    1400   -2529.2578    74553.062   -76326.236   -756.08391    231173.73    258.38843  0.012591287  0.017080537 
    1500   -1733.2641    75209.766   -76185.747   -757.28355    231146.84    258.35837 -0.026979398  0.017080537 
    1600   -1432.7511    75435.686   -76107.943   -760.49379    231494.23    258.74666 0.0013979626  0.017080537 
    1700   -987.18743    75837.933   -76067.344   -757.77683    231782.06    259.06837 -0.0046363265  0.017080537 
    1800   -413.63403    76357.544   -76026.322   -744.85572    231927.16    259.23056  0.049149919  0.017080537 
    1900   -410.12486     76452.01   -76117.776   -744.35906    232571.47    259.95072  0.017628323  0.017080537 
    2000    242.91474    76976.878   -75989.509   -744.45368    232592.88    259.97465 -0.021992396  0.017080537 
    2100    905.55911    77522.797   -75864.059    -753.1785    232670.97    260.06193  0.018464087  0.017080537 
    2200     750.3179    77378.633   -75872.513   -755.80205    233525.53     261.0171  0.030752614  0.017080537 
    2300    777.62762    77399.297   -75870.799   -750.87046    234098.67    261.65771  0.043612906  0.017080537 
    2400    1176.4509      77776.1   -75845.524   -754.12554    234408.21    262.00368 -0.021452598  0.017080537 
    2500    1556.0537    78113.491   -75808.276    -749.1615    234717.85    262.34978 -0.062176727  0.017080537 
    2600    1839.4912    78251.358   -75661.758   -750.10939    235180.01    262.86635  0.014224727  0.017080537 
    2700    2344.6446    78570.151   -75473.087   -752.41948    235359.53      263.067 -0.022363882  0.017080537 
    2800    2396.7029     78814.53   -75674.296   -743.53045    235927.95    263.70234 0.0018393507  0.017080537 
    2900    2541.4546    78845.397   -75557.087   -746.85533    236492.67    264.33354 -0.018664146  0.017080537 
    3000    2616.3072    79008.071   -75630.163   -761.60026    237007.21    264.90865  0.011399296  0.017080537 
    3100    2979.0674     79311.93   -75567.765   -765.09735    237143.16    265.06061 0.0013051568  0.017080537 
    3200    3187.0229    79363.342   -75414.807   -761.51147    237525.66    265.48813  0.033039325  0.017080537 
    3300    3252.3898    79630.935   -75632.016   -746.52939    238183.02    266.22289  0.040745776  0.017080537 
    3400    3409.3654    79575.802   -75414.606    -751.8303    238606.59    266.69632  0.069370213  0.017080537 
    3500    3689.4601    79799.267   -75367.533   -742.27412    238959.16    267.09039 0.0066739259  0.017080537 
    3600    3999.2577    79945.427   -75207.513   -738.65581    239251.53    267.41719  0.023471007  0.017080537 
    3700    4149.6985    80154.727   -75268.532   -736.49599    239683.42    267.89992 -0.066900346  0.017080537 
    3800    4214.4086    80128.348   -75168.665   -745.27453    240215.01    268.49409  0.017434523  0.017080537 
    3900    5189.2221    80793.494   -74862.655   -741.61697    239846.26    268.08193  0.039068684  0.017080537 
    4000    4728.6768    80458.314   -74990.437   -739.20016    240719.63    269.05811  0.034669682  0.017080537 
    4100    5223.5655    80910.617    -74939.52   -747.53226    240810.41    269.15958 -0.043010416  0.017080537 
    4200    5214.4384    80931.675    -74976.59   -740.64661    241293.99    269.70009 -0.013946201  0.017080537 
    4300    5131.9049    80757.035    -74886.71   -738.41934    241924.82    270.40518 -0.0075446478  0.017080537 
    4400    5035.7726    80783.405   -75010.221   -737.41142    242497.28    271.04503  0.053976249  0.017080537 
    4500    5737.2102    81013.723    -74546.94   -729.57292    242346.83    270.87687   0.13339557  0.017080537 
    4600    5709.9536    81244.452   -74801.658   -732.84092    242902.57    271.49804  0.057999846  0.017080537 
    4700    6019.6068    81345.163   -74589.366   -736.18943    243116.82    271.73751  0.068071636  0.017080537 
    4800    6267.6807    81590.076   -74576.131    -746.2644    243504.04    272.17032  0.073351963  0.017080537 
    4900    6309.0497    81465.012     -74398.8   -757.16163    243980.63    272.70301  0.090336992  0.017080537 
    5000    6700.4899    81715.324   -74265.475    -749.3591    244013.31    272.73954  0.099794767  0.017080537 
    5100    6729.1837    81832.108    -74350.39   -752.53482    244504.23    273.28826  0.021879848  0.017080537 
    5200    6634.7694    81675.787   -74287.824   -753.19326    245085.97    273.93848  0.079535806  0.017080537 
    5300    7004.2054    81869.856   -74113.024   -752.62746    245201.69    274.06782  0.047196862  0.017080537 
    5400    7554.4897    82344.585   -74048.046   -742.04913    245064.33    273.91429 -0.062622357  0.017080537 
    5500    7685.8831    82291.369   -73865.237   -740.24957    245463.02    274.35991  -0.01440904  0.017080537 
    5600    7970.1303    82398.634   -73684.468   -744.03493    245722.85    274.65033 0.0068850586  0.017080537 
    5700    7947.1013    82548.722   -73855.346   -746.27391    246204.37    275.18854   0.02094426  0.017080537 
    5800    8077.4325    82370.679   -73540.124   -753.12245    246552.24    275.57736   0.09040924  0.017080537 
    5900     8604.323    82951.754   -73597.408    -750.0236    246513.15    275.53367   0.06148622  0.017080537 
    6000    8457.6985    82637.479   -73422.982   -756.79855    246992.31    276.06924  0.093859785  0.017080537 
    6100    8696.7129    82611.135   -73160.325   -754.09676    247156.69    276.25297  0.081789831  0.017080537 
    6200    8983.1265    82795.545   -73061.859   -750.55888    247446.06    276.57641  0.094771878  0.017080537 
    6300    8979.8766    83073.797   -73344.298   -749.62311    247908.43    277.09321  0.040562036  0.017080537 
    6400    9110.8551    83009.409    -73156.67   -741.88404    248201.44    277.42071   0.03112034  0.017080537 
    6500    9652.6765    83517.546   -73121.943   -742.92625    248044.63    277.24544 -0.032051363  0.017080537 
    6600    9594.6976    83402.813   -73062.372   -745.74347     248567.4    277.82975  0.080201297  0.017080537 
    6700    10053.772    83571.781   -72772.351    -745.6573    248490.96    277.74431  0.046281399  0.017080537 
    6800    9950.8148    83492.608   -72802.262   -739.53127    248980.48    278.29146  0.078864678  0.017080537 
    6900    10272.528    83728.702   -72709.646   -746.52796    249161.28    278.49355  0.068373736  0.017080537 
    7000    10043.932    83462.579   -72670.139   -748.50876     249641.2    279.02997  0.088029128  0.017080537 
    7100    10864.136    84074.908   -72456.588   -754.18341    249267.56    278.61234 -0.057843742  0.017080537 
    7200    11044.574    84104.142   -72307.445   -752.12293     249437.2    278.80195 -0.041541636  0.017080537 
    7300    10878.476    84028.195   -72403.289   -746.43029    249927.78    279.35028 -0.024974266  0.017080537 
    7400    11007.874    84190.819   -72420.839   -762.10471    250333.71      279.804 -0.050763767  0.017080537 
    7500    11025.294    83960.773   -72180.871   -754.60845    250522.45    280.01496  0.082985392  0.017080537 
    7600    10831.118    83856.867   -72275.411   -750.33871    250967.71    280.51263  0.070083543  0.017080537 
    7700    11502.368    84220.824   -71965.309   -753.14705    250720.94    280.23681  0.051203738  0.017080537 
    7800    11203.879    84095.385    -72131.17   -760.33683    251302.83    280.88721   0.10019539  0.017080537 
    7900    11156.105     83925.42   -72006.253   -763.06199    251494.52    281.10146   0.06087485  0.017080537 
    8000     11767.69    84417.824    -71894.62   -755.51315    251278.86    280.86042  0.033408731  0.017080537 
    8100    11908.262    84625.627   -71959.868   -757.49659    251515.41    281.12481  0.022643225  0.017080537 
    8200    11966.409    84594.215   -71864.366    -763.4399    251830.66    281.47718  0.057067472  0.017080537 
    8300    12061.097    84461.863   -71638.434   -762.33202    252074.43    281.74965   0.06161618  0.017080537 
    8400    12023.184    84376.545   -71582.825   -770.53654    252316.38    282.02007   0.05528625  0.017080537 
    8500    12045.497    84440.045   -71627.656   -766.89203     252627.4    282.36771  0.076779761  0.017080537 
    8600    12411.765    84918.736   -71745.596   -761.37432    252543.93    282.27442  0.028706671  0.017080537 
    8700    12236.195    84771.823   -71788.654    -746.9734    252858.13    282.62561  0.057124817  0.017080537 
    8800    12242.291     84765.52   -71768.001   -755.22801    253127.45    282.92663   0.10647457  0.017080537 
    8900    12608.428    84984.184   -71620.397   -755.35878    253095.97    282.89145  0.019365811  0.017080537 
    9000    12745.014    84952.166   -71451.969    -755.1831    253310.69    283.13145  0.089491189  0.017080537 
    9100    13118.165    85117.656   -71235.058   -764.43388    253187.73    282.99401  0.085423258  0.017080537 
    9200     13176.02    85126.481   -71193.014   -757.44721    253597.04    283.45151   0.11989166  0.017080537 
    9300    13328.626    85155.548   -71063.288   -763.63357    253708.56    283.57615   0.13889542  0.017080537 
    9400    13345.417    85180.918   -71070.669   -764.83195    253998.15    283.89983  0.092332945  0.017080537 
    9500    13608.939     85464.37   -71087.457   -767.97383    254105.27    284.01957  0.040859203  0.017080537 
    9600    13809.521    85403.192   -70824.649   -769.02177    254186.86    284.11076  0.077147274  0.017080537 
    9700    13843.839    85223.433   -70608.743   -770.85082    254511.82    284.47397  0.023472037  0.017080537 
    9800    13732.431    85090.938   -70590.106    -768.4013    254861.52    284.86484  0.037101578  0.017080537 
    9900    14375.337    85752.652   -70616.346    -760.9691     254503.6    284.46478 0.0085644598  0.017080537 
   10000    14387.266     85617.63   -70470.026   -760.33827    254919.22    284.92933    0.0209233  0.017080537 
Loop time of 476.446 on 384 procs for 10000 steps with 300146 atoms

Performance: 18.134 ns/day, 1.323 hours/ns, 20.989 timesteps/s
276.7% CPU use with 32 MPI tasks x 12 OpenMP threads

MPI task timing breakdown:
Section |  min time  |  avg time  |  max time  |%varavg| %total
---------------------------------------------------------------
Pair    | 282.49     | 337.78     | 403.52     | 161.6 | 70.90
Bond    | 7.0278     | 7.2679     | 7.5642     |   4.2 |  1.53
Neigh   | 43.45      | 43.647     | 43.856     |   2.1 |  9.16
Comm    | 7.2893     | 72.211     | 128.03     | 349.1 | 15.16
Output  | 0.015597   | 0.032873   | 0.32769    |  29.3 |  0.01
Modify  | 10.755     | 12.155     | 32.432     | 104.9 |  2.55
Other   |            | 3.349      |            |       |  0.70

Nlocal:        9379.56 ave       10143 max        8661 min
Histogram: 1 3 2 2 10 7 2 3 1 1
Nghost:        12064.0 ave       18113 max        8161 min
Histogram: 5 1 7 4 7 2 3 0 1 2
Neighs:       610526.0 ave      739880 max      520119 min
Histogram: 2 5 4 6 6 4 0 1 3 1

Total # of neighbors = 19536845
Ave neighs/atom = 65.091139
Ave special neighs/atom = 1.9870130
Neighbor list builds = 500
Dangerous builds = 490

Please see the log.cite file for references relevant to this simulation

Total wall time: 0:07:59
