LAMMPS (29 Oct 2020)
  using 12 OpenMP thread(s) per MPI task
Reading data file ...
  orthogonal box = (-709.00000 -659.00000 -772.50000) to (709.00000 659.00000 772.50000)
  4 by 2 by 4 MPI processor grid
  reading atoms ...
  300146 atoms
  reading velocities ...
  300146 velocities
  scanning bonds ...
  1 = max bonds/atom
  reading bonds ...
  298197 bonds
Finding 1-2 1-3 1-4 neighbors ...
  special bond factors lj:    0.0      0.0      0.0     
  special bond factors coul:  0.0      0.0      0.0     
     2 = max # of 1-2 neighbors
     2 = max # of 1-3 neighbors
     4 = max # of 1-4 neighbors
     6 = max # of special neighbors
  special bonds CPU = 0.066 seconds
  read_data CPU = 2.232 seconds
Setting atom values ...
  9745 settings made for charge
Setting atom values ...
  1949 settings made for charge
Setting atom values ...
  5847 settings made for charge
Setting atom values ...
  3898 settings made for charge
Finding 1-2 1-3 1-4 neighbors ...
  special bond factors lj:    0.0      1.0      1.0     
  special bond factors coul:  0.0      1.0      1.0     
     2 = max # of 1-2 neighbors
     6 = max # of special neighbors
  special bonds CPU = 0.031 seconds
Neighbor list info ...
  update every 20 steps, delay 0 steps, check yes
  max neighbors/atom: 2000, page size: 100000
  master list distance cutoff = 38
  ghost atom cutoff = 38
  binsize = 11.5, bins = 124 115 135
  1 neighbor lists, perpetual/occasional/extra = 1 0 0
  (1) pair ljlambda, perpetual
      attributes: half, newton on
      pair build: half/multi/newton
      stencil: half/multi/3d/newton
      bin: standard
Setting up Verlet run ...
  Unit style    : real
  Current step  : 0
  Time step     : 10.0
Per MPI rank memory allocation (min/avg/max) = 33.64 | 38.30 | 72.05 Mbytes
Step PotEng E_bond E_vdwl E_coul KinEng Temp Press Density 
       0   -50472.541    3507.3266   -53235.227   -744.64087    268402.57          300    8.9798637  0.017080537 
     100   -18749.579    59221.176   -77218.727   -752.02866    237305.95    265.24256   0.83070275  0.017080537 
     200   -16473.095    61988.995   -77705.386   -756.70404    235703.82    263.45182    0.5585564  0.017080537 
     300   -13704.291    64426.787   -77374.906   -756.17142    233680.97    261.19084   0.18018151  0.017080537 
     400   -11183.682    66742.237   -77174.629   -751.28981    231841.18    259.13446 -0.015631587  0.017080537 
     500   -9301.5906    68426.634   -76982.634   -745.59102     230736.1    257.89928  -0.11328434  0.017080537 
     600   -7845.6745    69698.958   -76795.215    -749.4176     230073.3    257.15845 -0.099152801  0.017080537 
     700   -6923.9539    70448.951   -76618.845   -754.05932    229910.21    256.97616 -0.031348514  0.017080537 
     800   -5718.2243    71475.602   -76434.591   -759.23495     229459.4    256.47228 -0.075582185  0.017080537 
     900   -4759.4839    72271.859   -76270.794   -760.54874    229404.73    256.41118  -0.04463552  0.017080537 
    1000   -4298.2436    72876.342   -76426.366   -748.21911    229716.04    256.75913 -0.067664358  0.017080537 
    1100   -3674.8051    73441.636   -76361.721   -754.72027    229950.43    257.02112 -0.016276832  0.017080537 
    1200   -3147.3265     73963.68   -76358.205   -752.80162    230129.11    257.22083 -0.018825681  0.017080537 
    1300   -2257.8593     74651.41   -76150.474   -758.79518    230085.33     257.1719 -0.089662413  0.017080537 
    1400   -2529.2578    74553.062   -76326.236   -756.08391    231173.73    258.38843  0.012591287  0.017080537 
    1500   -1733.2641    75209.766   -76185.747   -757.28355    231146.84    258.35837 -0.026979398  0.017080537 
    1600   -1432.7511    75435.686   -76107.943   -760.49379    231494.23    258.74666 0.0013979626  0.017080537 
    1700   -987.18743    75837.933   -76067.344   -757.77683    231782.06    259.06837 -0.0046363265  0.017080537 
    1800   -413.63403    76357.544   -76026.322   -744.85572    231927.16    259.23056  0.049149919  0.017080537 
    1900   -410.12486     76452.01   -76117.776   -744.35906    232571.47    259.95072  0.017628323  0.017080537 
    2000    242.91474    76976.878   -75989.509   -744.45368    232592.88    259.97465 -0.021992396  0.017080537 
    2100    905.55911    77522.797   -75864.059    -753.1785    232670.97    260.06193  0.018464087  0.017080537 
    2200     750.3179    77378.633   -75872.513   -755.80205    233525.53     261.0171  0.030752614  0.017080537 
    2300    777.62762    77399.297   -75870.799   -750.87046    234098.67    261.65771  0.043612905  0.017080537 
    2400    1176.4509      77776.1   -75845.524   -754.12554    234408.21    262.00368 -0.021452598  0.017080537 
    2500    1556.0537    78113.491   -75808.276    -749.1615    234717.85    262.34978 -0.062176727  0.017080537 
    2600    1839.4912    78251.358   -75661.758   -750.10939    235180.01    262.86635  0.014224726  0.017080537 
    2700    2344.6446    78570.151   -75473.087   -752.41948    235359.53      263.067 -0.022363881  0.017080537 
    2800    2396.7029     78814.53   -75674.297   -743.53045    235927.95    263.70234 0.0018393458  0.017080537 
    2900    2541.4546    78845.397   -75557.087   -746.85533    236492.67    264.33354 -0.018664149  0.017080537 
    3000    2616.3071    79008.071   -75630.163   -761.60026    237007.21    264.90865   0.01139929  0.017080537 
    3100    2979.0673     79311.93   -75567.765   -765.09735    237143.16    265.06061 0.0013051332  0.017080537 
    3200    3187.0229    79363.342   -75414.807   -761.51147    237525.66    265.48813  0.033039333  0.017080537 
    3300    3252.3902    79630.936   -75632.016    -746.5294    238183.02    266.22288  0.040745739  0.017080537 
    3400    3409.3652    79575.801   -75414.605   -751.83032    238606.59    266.69632  0.069370336  0.017080537 
    3500    3689.4597    79799.268   -75367.534   -742.27414    238959.16    267.09039 0.0066738034  0.017080537 
    3600    3999.2567    79945.428   -75207.516   -738.65584    239251.53    267.41719  0.023471371  0.017080537 
    3700    4149.7076     80154.73   -75268.526   -736.49603    239683.41    267.89991 -0.066900502  0.017080537 
    3800    4214.3962    80128.349   -75168.678   -745.27436    240215.02     268.4941  0.017435866  0.017080537 
    3900    5189.2303    80793.549   -74862.702   -741.61692    239846.24    268.08191  0.039064648  0.017080537 
    4000     4733.861      80467.9   -74994.813   -739.22625    240714.09    269.05192  0.033955062  0.017080537 
    4100    5274.4012     80953.72   -74931.932   -747.38698    240841.02     269.1938 -0.042082578  0.017080537 
    4200    5553.6352    81196.016   -74902.691   -739.69061    241091.95    269.47426 -0.023585321  0.017080537 
    4300    5117.7996    80850.332   -74991.366   -741.16672    242110.85    270.61311 -0.028854618  0.017080537 
    4400    5245.9157    80847.867   -74858.516   -743.43456     242494.1    271.04149  0.063130267  0.017080537 
    4500    5858.6441     81268.65   -74676.384   -733.62243    242330.84    270.85901  0.048270146  0.017080537 
    4600    5731.2437    81180.804   -74713.727     -735.834    242924.19    271.52221  0.039373398  0.017080537 
    4700    5704.7735    81058.394   -74623.304   -730.31622    243451.95    272.11209   0.10277303  0.017080537 
    4800    5995.6294    81353.857     -74620.9   -737.32715     243662.6    272.34755   0.12331169  0.017080537 
    4900    6231.8543    81544.103   -74565.509   -746.73968    243985.41    272.70835  0.039638361  0.017080537 
    5000    6728.3717    81766.868    -74293.41   -745.08581    243957.32    272.67696  0.028426773  0.017080537 
    5100    6596.8252     81519.96   -74185.447   -737.68783    244591.06    273.38531  0.046657079  0.017080537 
    5200    6903.3977    81758.037   -74114.539   -740.10034    244808.91     273.6288 0.0056817535  0.017080537 
    5300    7093.0273    82032.456   -74199.503   -739.92655    245083.71    273.93596 -0.012383516  0.017080537 
    5400    7528.6327    82351.566   -74078.215   -744.71856    245010.67    273.85431 0.0086134821  0.017080537 
    5500    7540.7198    82067.788   -73788.123   -738.94493    245503.75    274.40544   0.14874209  0.017080537 
    5600    7599.7415    82186.407   -73846.255   -740.41035     246071.7    275.04025   0.11598782  0.017080537 
    5700    7893.8733    82503.837   -73875.403   -734.56107    246235.15    275.22295 -0.013390105  0.017080537 
    5800    8182.4682     82598.31   -73672.874   -742.96787    246346.11    275.34697  0.044079848  0.017080537 
    5900     7842.499    82270.576   -73691.745   -736.33188    247158.96    276.25551  0.035521908  0.017080537 
    6000    8328.0746    82746.491   -73674.145   -744.27222    247139.59    276.23386 0.00076274753  0.017080537 
    6100    8141.6032    82339.408    -73463.15   -734.65417     247762.1    276.92966   0.10098497  0.017080537 
    6200    8605.5219    82780.839   -73430.392   -744.92503    247745.93    276.91157 -0.002682379  0.017080537 
    6300    9121.0865      83125.7   -73251.679   -752.93446    247889.18    277.07169  0.049367797  0.017080537 
    6400    9023.3963    82983.023   -73200.437   -759.18968    248332.19    277.56685  0.045438259  0.017080537 
    6500    8942.7514    82957.918   -73264.062   -751.10393    248923.84    278.22815 -0.0081853068  0.017080537 
    6600    9642.1443    83460.154   -73073.424   -744.58595    248499.22    277.75355   0.10797219  0.017080537 
    6700     9751.231    83667.781   -73159.816    -756.7337    248770.37    278.05662  0.003975801  0.017080537 
    6800    9534.9824    83347.423   -73048.996   -763.44391    249275.33    278.62103   0.04664997  0.017080537 
    6900    9838.3035    83363.398   -72763.591   -761.50394    249293.45    278.64127   0.11317287  0.017080537 
    7000    9620.2343    83088.465   -72711.339   -756.89139    249729.88    279.12909  0.082866012  0.017080537 
    7100    9965.6598    83695.022   -72961.637   -767.72551    249746.13    279.14724  0.032700102  0.017080537 
    7200    10129.148     83531.79   -72639.864   -762.77826    249907.26    279.32735  0.077245802  0.017080537 
    7300    10300.386    83739.508   -72671.386   -767.73587    250146.05    279.59425  0.082224174  0.017080537 
    7400    10384.038    83709.827   -72563.119   -762.66997     250424.6    279.90559   0.07617725  0.017080537 
    7500    10870.351    84071.911   -72435.944   -765.61564    250211.35    279.66723  0.035776219  0.017080537 
    7600    10933.527     83949.18    -72247.79   -767.86331    250603.68    280.10575  0.018331685  0.017080537 
    7700    11387.285    84278.671   -72125.172   -766.21362    250518.74    280.01081 -0.026073831  0.017080537 
    7800    11565.046    84412.965   -72080.758   -767.16082    250652.47    280.16029  -0.02697526  0.017080537 
    7900    11858.588    84409.381   -71777.124   -773.66854    250714.84       280.23  0.039492953  0.017080537 
    8000    11884.448    84568.986   -71913.861   -770.67711    250996.01    280.54427  0.026746255  0.017080537 
    8100    11811.933    84368.878   -71802.625   -754.31988    251428.86    281.02808  0.032995792  0.017080537 
    8200    11795.142     84322.76   -71775.476   -752.14173    251618.71    281.24028  0.095327883  0.017080537 
    8300    12098.869    84633.295   -71786.814   -747.61201    251684.45    281.31375 -0.022767874  0.017080537 
    8400    12419.324    84575.102   -71400.489   -755.28832    251749.37    281.38632   0.08027178  0.017080537 
    8500    12530.483    84595.773   -71313.561   -751.72821    252033.26    281.70363  0.052531463  0.017080537 
    8600    12452.416    84471.702   -71276.853   -742.43326    252408.95    282.12355  0.053031447  0.017080537 
    8700    12768.651    84595.657   -71085.529   -741.47601    252284.71    281.98468  0.091062139  0.017080537 
    8800    12833.113    84704.814   -71116.506   -755.19486    252500.03    282.22535   0.12345001  0.017080537 
    8900    12918.801    84928.477   -71243.616   -766.05992    252874.86    282.64431 -0.0061080988  0.017080537 
    9000    12773.792    84749.044   -71200.442   -774.81016    253292.58     283.1112  0.028515094  0.017080537 
    9100    13260.371    85068.713   -71031.735   -776.60673    253126.69    282.92578  0.043878989  0.017080537 
    9200    13559.439    85222.298   -70891.543    -771.3164    253183.19    282.98893 0.0059930459  0.017080537 
    9300    13756.052    85271.009   -70745.584   -769.37368    253322.73     283.1449  0.040674294  0.017080537 
    9400    13844.973    85281.949   -70666.848   -770.12874     253393.8    283.22433  0.041961976  0.017080537 
    9500    13633.485    85185.331   -70780.281   -771.56489    253838.17    283.72102  0.034405546  0.017080537 
    9600    14122.205    85629.466    -70740.87   -766.39209    253696.34    283.56249 0.0039572154  0.017080537 
    9700    13846.521    85335.317   -70721.979   -766.81684    254350.32    284.29346  0.050323045  0.017080537 
    9800    14501.512    85695.253   -70437.159   -756.58258    254041.52    283.94831  0.061950938  0.017080537 
    9900    14343.088    85605.005   -70504.389    -757.5286    254527.22    284.49119  0.043585936  0.017080537 
   10000    14131.316    85236.569   -70346.348   -758.90569    254873.12     284.8778  0.048640823  0.017080537 
Loop time of 472.147 on 384 procs for 10000 steps with 300146 atoms

Performance: 18.299 ns/day, 1.312 hours/ns, 21.180 timesteps/s
278.2% CPU use with 32 MPI tasks x 12 OpenMP threads

MPI task timing breakdown:
Section |  min time  |  avg time  |  max time  |%varavg| %total
---------------------------------------------------------------
Pair    | 281.24     | 337.3      | 399.58     | 162.3 | 71.44
Bond    | 7.0595     | 7.2689     | 7.4946     |   3.9 |  1.54
Neigh   | 43.287     | 43.485     | 43.691     |   2.1 |  9.21
Comm    | 7.0512     | 68.549     | 125.09     | 359.8 | 14.52
Output  | 0.015355   | 0.033317   | 0.3124     |  27.5 |  0.01
Modify  | 10.714     | 12.165     | 31.99      | 102.6 |  2.58
Other   |            | 3.349      |            |       |  0.71

Nlocal:        9379.56 ave        9847 max        8622 min
Histogram: 1 1 2 0 3 3 12 4 2 4
Nghost:        12035.9 ave       17733 max        8197 min
Histogram: 5 2 3 8 6 2 3 0 1 2
Neighs:       609385.0 ave      736159 max      532483 min
Histogram: 4 4 4 9 2 3 3 0 1 2

Total # of neighbors = 19500323
Ave neighs/atom = 64.969458
Ave special neighs/atom = 1.9870130
Neighbor list builds = 500
Dangerous builds = 490

Please see the log.cite file for references relevant to this simulation

Total wall time: 0:07:54
