LAMMPS (29 Oct 2020)
  using 12 OpenMP thread(s) per MPI task
Reading data file ...
  orthogonal box = (-709.00000 -659.00000 -772.50000) to (709.00000 659.00000 772.50000)
  16 by 16 by 16 MPI processor grid
  reading atoms ...
  300146 atoms
  reading velocities ...
  300146 velocities
  scanning bonds ...
  1 = max bonds/atom
  reading bonds ...
  298197 bonds
Finding 1-2 1-3 1-4 neighbors ...
  special bond factors lj:    0.0      0.0      0.0     
  special bond factors coul:  0.0      0.0      0.0     
     2 = max # of 1-2 neighbors
     2 = max # of 1-3 neighbors
     4 = max # of 1-4 neighbors
     6 = max # of special neighbors
  special bonds CPU = 0.115 seconds
  read_data CPU = 2.928 seconds
Setting atom values ...
  9745 settings made for charge
Setting atom values ...
  1949 settings made for charge
Setting atom values ...
  5847 settings made for charge
Setting atom values ...
  3898 settings made for charge
Finding 1-2 1-3 1-4 neighbors ...
  special bond factors lj:    0.0      1.0      1.0     
  special bond factors coul:  0.0      1.0      1.0     
     2 = max # of 1-2 neighbors
     6 = max # of special neighbors
  special bonds CPU = 0.040 seconds
Neighbor list info ...
  update every 20 steps, delay 0 steps, check yes
  max neighbors/atom: 2000, page size: 100000
  master list distance cutoff = 38
  ghost atom cutoff = 38
  binsize = 11.5, bins = 124 115 135
  1 neighbor lists, perpetual/occasional/extra = 1 0 0
  (1) pair ljlambda, perpetual
      attributes: half, newton on
      pair build: half/multi/newton
      stencil: half/multi/3d/newton
      bin: standard
Setting up Verlet run ...
  Unit style    : real
  Current step  : 0
  Time step     : 10.0
Per MPI rank memory allocation (min/avg/max) = 17.40 | 17.52 | 18.28 Mbytes
Step PotEng E_bond E_vdwl E_coul KinEng Temp Press Density 
       0   -50472.541    3507.3266   -53235.227   -744.64087    268402.57          300    8.9798637  0.017080537 
     100   -18807.736    59136.786   -77192.346   -752.17587    237360.08    265.30306    0.8500058  0.017080537 
     200   -16595.469    61909.007   -77748.148   -756.32748     235774.5    263.53083   0.56125709  0.017080537 
     300   -13903.764    64360.337   -77503.274   -760.82708     233802.7     261.3269   0.18654102  0.017080537 
     400   -11460.726    66406.212   -77113.509   -753.42846    232127.88     259.4549  0.088079033  0.017080537 
     500   -9578.9749    68119.879   -76953.501   -745.35324    230994.16    258.18772 -0.025142522  0.017080537 
     600   -8158.2083    69315.404   -76724.248   -749.36401       230405     257.5292  -0.04644575  0.017080537 
     700   -7093.3213    70206.463   -76557.532   -742.25269    230178.93    257.27653  -0.05565694  0.017080537 
     800   -5897.2724    71373.398   -76530.682   -739.98836    229805.57    256.85921 -0.063722703  0.017080537 
     900   -5038.9616    72063.007   -76364.145   -737.82355    229808.11    256.86204 -0.078908108  0.017080537 
    1000   -4136.8941    72937.419   -76335.883   -738.42971    229670.26    256.70797 -0.092603927  0.017080537 
    1100   -3576.6584    73458.473   -76286.718   -748.41318    229910.61    256.97662 -0.059825034  0.017080537 
    1200   -3307.5253    73774.696   -76336.252   -745.96975    230458.66    257.58918 -0.011694449  0.017080537 
    1300   -2499.4201    74590.281   -76345.494   -744.20632    230474.77    257.60718  0.027629427  0.017080537 
    1400   -1876.6753     75097.94   -76228.088   -746.52744    230567.26    257.71056 -0.015266588  0.017080537 
    1500   -1397.1676    75711.217   -76354.767   -753.61778    230905.72    258.08887 -0.019264345  0.017080537 
    1600   -1094.2002    75997.874   -76342.258   -749.81638    231466.47    258.71564 -0.022837775  0.017080537 
    1700    -1001.964    76238.266   -76485.189    -755.0408    232055.51    259.37402 -0.023655139  0.017080537 
    1800   -339.30946    76512.794   -76094.897   -757.20626    232232.74    259.57211   0.03407567  0.017080537 
    1900   -43.719966    76940.477   -76224.749   -759.44784    232606.39    259.98975 -0.017323841  0.017080537 
    2000    98.113402    76993.357   -76133.908   -761.33581    233165.21    260.61436 -0.0035646733  0.017080537 
    2100    402.72636    77083.288   -75920.965   -759.59635    233576.25    261.07378 -0.035186894  0.017080537 
    2200    973.19671    77685.349   -75954.362   -757.78981    233628.72    261.13243 -0.039260013  0.017080537 
    2300    964.93448     77736.91   -76021.715    -750.2597     234307.6    261.89124  0.024797498  0.017080537 
    2400      1119.76    77874.579   -76002.338   -752.48151    234899.81    262.55316 -0.0061827664  0.017080537 
    2500    1450.6264    78088.419   -75900.379   -737.41343    235178.11    262.86422 0.0011702629  0.017080537 
    2600     1832.113    78192.511   -75612.718   -747.67939    235364.59    263.07265  0.073894334  0.017080537 
    2700    2066.3792    78607.852   -75791.519   -749.95348    235732.46    263.48383  -0.00420678  0.017080537 
    2800    2406.6156    78730.586   -75575.904   -748.06616    236023.15    263.80875 -0.043863403  0.017080537 
    2900    2697.8198    78925.568   -75485.274   -742.47418    236355.53    264.18025 -0.036582985  0.017080537 
    3000     2936.265    79156.416   -75482.423   -737.72801    236821.59    264.70118 0.00025088293  0.017080537 
    3100    3093.0956    79264.049   -75426.782   -744.17042    237372.28     265.3167  0.056486769  0.017080537 
    3200    3545.1289    79639.191   -75340.938   -753.12394    237461.75     265.4167 -0.034031622  0.017080537 
    3300     3558.152    79673.373   -75371.684   -743.53677    238147.71    266.18342  0.038397491  0.017080537 
    3400    3839.7936    79760.427   -75173.572   -747.06144    238493.46    266.56987 0.00035956732  0.017080537 
    3500    4118.2193    79923.432     -75058.6   -746.61251    238817.86    266.93245 -0.022959165  0.017080537 
    3600    4137.2406     79822.24   -74944.549   -740.45034    239337.04    267.51276 0.0047974421  0.017080537 
    3700    4641.1335    80363.989   -74973.393   -749.46293    239321.37    267.49524 -0.038409826  0.017080537 
    3800    4465.6697    80103.435   -74898.055   -739.71016     240024.5    268.28115 -0.012711427  0.017080537 
    3900    4574.9464    80059.833   -74737.574   -747.31245       240325    268.61703  0.020377569  0.017080537 
    4000    4891.8014    80367.591   -74731.897    -743.8929    240449.52    268.75621 -0.017625172  0.017080537 
    4100    4976.8071     80346.05   -74618.307   -750.93585    240727.05     269.0664 -0.0059256102  0.017080537 
    4200    5148.6319    80659.753   -74763.424   -747.69755    241042.86     269.4194 -0.025568331  0.017080537 
    4300    5216.5943    80267.547   -74302.586   -748.36734    241448.19    269.87244   0.10753507  0.017080537 
    4400    5401.5259    80601.895   -74450.268   -750.10083     241797.7    270.26309 -0.013147705  0.017080537 
    4500     5670.178     80931.92   -74514.714   -747.02773     242046.9    270.54164 -0.067545595  0.017080537 
    4600    5598.1531    80879.123   -74531.496   -749.47355    242639.91    271.20446  0.029595013  0.017080537 
    4700    5933.8988    81011.473   -74331.646   -745.92801    242886.59    271.48018  0.065181939  0.017080537 
    4800    6477.9649    81546.712   -74323.786   -744.96115    242900.96    271.49624  0.031149036  0.017080537 
    4900    6585.6935    81707.447   -74373.199   -748.55432    243368.45    272.01877 -0.033015202  0.017080537 
    5000    6470.8183    81262.998   -74043.203    -748.9769    244044.06    272.77391  0.058460093  0.017080537 
    5100    6488.0278    81377.078   -74136.807   -752.24357    244585.08    273.37861  0.086719377  0.017080537 
    5200    6994.2589    81797.649   -74051.284   -752.10555    244621.74     273.4196  0.013340874  0.017080537 
    5300    7356.0083    82007.493    -73898.52   -752.96405     244661.8    273.46437 -0.028924604  0.017080537 
    5400     7717.834    82129.598   -73656.103   -755.66136    244775.29    273.59123  0.011760483  0.017080537 
    5500    7660.2564    82145.873   -73729.561   -756.05485    245268.61    274.14262  0.024737963  0.017080537 
    5600    8000.2846    82397.784   -73655.901   -741.59929    245374.88    274.26139  0.040267286  0.017080537 
    5700    7882.8429    82317.961   -73694.737   -740.38116    246040.62    275.00551  0.028308488  0.017080537 
    5800     7690.136    82141.815   -73707.451     -744.228    246660.04    275.69785  0.042314656  0.017080537 
    5900    8172.7714    82682.763   -73758.909   -751.08239    246668.82    275.70767  0.049200335  0.017080537 
    6000    8134.0095    82574.506    -73685.83    -754.6668    247008.13    276.08692 -0.0033517313  0.017080537 
    6100     8475.973    82685.823   -73448.206   -761.64372    247058.65    276.14338  0.031040101  0.017080537 
    6200    8460.1414    82628.865   -73403.121   -765.60236    247482.67    276.61732  0.046388846  0.017080537 
    6300    8563.6828    82758.485   -73421.941   -772.86095    247780.11    276.94978   0.13212534  0.017080537 
    6400    8985.3299    83182.556   -73426.366   -770.85983    247827.33    277.00256  0.044434898  0.017080537 
    6500    8678.1109    82845.638   -73404.418   -763.10907    248504.97    277.75997  0.061569561  0.017080537 
    6600    8916.4737    82970.015   -73298.524   -755.01714    248675.43     277.9505  0.041102968  0.017080537 
    6700    9360.9598    83306.125    -73186.27    -758.8942    248627.63    277.89708  0.039402436  0.017080537 
    6800    9509.5249    83164.492   -72884.466    -770.5017    248794.85    278.08398  0.054614884  0.017080537 
    6900    9308.7271    83127.657    -73057.94   -760.99017    249302.28    278.65115  0.063153493  0.017080537 
    7000    10118.977    83617.892   -72742.665   -756.25007    248878.34     278.1773   0.10168669  0.017080537 
    7100    10124.855    83639.584   -72770.366   -744.36308    249241.53    278.58325 -0.002018315  0.017080537 
    7200    9909.2353    83451.588   -72791.412   -750.94054    249789.07    279.19524 -0.039715351  0.017080537 
    7300    10459.789    83798.242   -72588.286   -750.16684    249613.29    278.99877   0.05528958  0.017080537 
    7400    10401.874    83739.136   -72573.062   -764.20024    250046.23    279.48268  0.028438813  0.017080537 
    7500    10318.044    83548.623   -72469.608   -760.97093    250477.81    279.96507  0.090131822  0.017080537 
    7600    11043.789     84259.84   -72450.882   -765.16838    250123.13    279.56863  0.023678197  0.017080537 
    7700    11146.488    84124.851   -72207.431   -770.93234     250363.6    279.83741  0.020599487  0.017080537 
    7800    11156.543    84216.995   -72297.508   -762.94407    250731.16    280.24824  0.018133395  0.017080537 
    7900    11148.723    84004.418   -72094.527   -761.16728    251118.55    280.68124  0.087582637  0.017080537 
    8000    11668.798    84240.196   -71806.427   -764.97161    251047.47    280.60179   0.05098189  0.017080537 
    8100    12102.594    84593.245    -71724.39   -766.26106    250906.99    280.44477  0.042869939  0.017080537 
    8200    11987.699    84685.858    -71926.58   -771.57978    251212.59    280.78635  0.032497559  0.017080537 
    8300    11836.631    84403.391   -71799.446   -767.31432    251810.01     281.4541  0.054657041  0.017080537 
    8400     12274.79    84796.473   -71754.508   -767.17601    251647.27     281.2722  0.040332113  0.017080537 
    8500    12366.172    84736.574   -71604.072   -766.33034    251944.84     281.6048 -0.025167067  0.017080537 
    8600    12263.826    84415.861   -71390.831   -761.20385    252380.94    282.09224   0.12553341  0.017080537 
    8700    12738.696    85046.323   -71552.959   -754.66835    252290.23    281.99085  0.006630038  0.017080537 
    8800    12376.268    84510.735   -71379.658   -754.80859    252892.78    282.66433  0.047241326  0.017080537 
    8900    12765.235    84844.302    -71325.75   -753.31763    252766.99    282.52374  0.048094536  0.017080537 
    9000    13459.112    85272.461     -71050.1   -763.24866    252286.68    281.98689  0.032929965  0.017080537 
    9100    13080.346    85086.781   -71250.578   -755.85642    252980.76    282.76267  0.010013778  0.017080537 
    9200    13326.106    85275.617   -71192.421   -757.08919    253078.22     282.8716  0.045658648  0.017080537 
    9300    13508.536    85125.987   -70861.689   -755.76205    253251.74    283.06555  0.059881959  0.017080537 
    9400    13726.572    85386.484   -70899.037   -760.87531    253418.85    283.25234  0.019745779  0.017080537 
    9500    13883.534    85446.521    -70799.93   -763.05646    253587.24    283.44055  0.022960007  0.017080537 
    9600    13563.463    85064.088   -70741.191   -759.43277    254158.14    284.07866   0.10783052  0.017080537 
    9700    14288.614    85749.569   -70695.755   -765.19979    253673.51    283.53697  0.034217457  0.017080537 
    9800    14040.366    85522.821   -70718.289   -764.16532     254273.8    284.20794  0.044717435  0.017080537 
    9900    14637.604    85914.958   -70517.002   -760.35176    254078.87    283.99005  0.042372923  0.017080537 
   10000    14739.842    85832.541   -70332.212   -760.48681    254329.43    284.27011  0.028545371  0.017080537 
Loop time of 15.874 on 49152 procs for 10000 steps with 300146 atoms

Performance: 544.285 ns/day, 0.044 hours/ns, 629.959 timesteps/s
938.2% CPU use with 4096 MPI tasks x 12 OpenMP threads

MPI task timing breakdown:
Section |  min time  |  avg time  |  max time  |%varavg| %total
---------------------------------------------------------------
Pair    | 0.73669    | 2.7004     | 4.0459     |  38.4 | 17.01
Bond    | 0.047088   | 0.056236   | 0.063891   |   1.1 |  0.35
Neigh   | 0.45585    | 0.71381    | 0.88164    |   9.1 |  4.50
Comm    | 5.3933     | 7.4824     | 11.616     |  32.5 | 47.14
Output  | 0.019474   | 0.035912   | 0.052235   |   2.1 |  0.23
Modify  | 1.1432     | 4.6367     | 6.0313     |  26.3 | 29.21
Other   |            | 0.2487     |            |       |  1.57

Nlocal:        73.2778 ave          79 max          69 min
Histogram: 3 44 244 715 1351 1140 474 106 17 2
Nghost:        2446.81 ave        4416 max         463 min
Histogram: 40 178 476 738 615 565 686 611 180 7
Neighs:        4763.86 ave        7730 max         996 min
Histogram: 30 146 328 455 517 657 814 778 319 52

Total # of neighbors = 19512782
Ave neighs/atom = 65.010968
Ave special neighs/atom = 1.9870130
Neighbor list builds = 500
Dangerous builds = 490

Please see the log.cite file for references relevant to this simulation

Total wall time: 0:00:19
