LAMMPS (29 Oct 2020)
  using 12 OpenMP thread(s) per MPI task
Reading data file ...
  orthogonal box = (-709.00000 -659.00000 -772.50000) to (709.00000 659.00000 772.50000)
  16 by 16 by 16 MPI processor grid
  reading atoms ...
  300146 atoms
  reading velocities ...
  300146 velocities
  scanning bonds ...
  1 = max bonds/atom
  reading bonds ...
  298197 bonds
Finding 1-2 1-3 1-4 neighbors ...
  special bond factors lj:    0.0      0.0      0.0     
  special bond factors coul:  0.0      0.0      0.0     
     2 = max # of 1-2 neighbors
     2 = max # of 1-3 neighbors
     4 = max # of 1-4 neighbors
     6 = max # of special neighbors
  special bonds CPU = 0.150 seconds
  read_data CPU = 2.930 seconds
Setting atom values ...
  9745 settings made for charge
Setting atom values ...
  1949 settings made for charge
Setting atom values ...
  5847 settings made for charge
Setting atom values ...
  3898 settings made for charge
Finding 1-2 1-3 1-4 neighbors ...
  special bond factors lj:    0.0      1.0      1.0     
  special bond factors coul:  0.0      1.0      1.0     
     2 = max # of 1-2 neighbors
     6 = max # of special neighbors
  special bonds CPU = 0.055 seconds
Neighbor list info ...
  update every 20 steps, delay 0 steps, check yes
  max neighbors/atom: 2000, page size: 100000
  master list distance cutoff = 38
  ghost atom cutoff = 38
  binsize = 11.5, bins = 124 115 135
  1 neighbor lists, perpetual/occasional/extra = 1 0 0
  (1) pair ljlambda, perpetual
      attributes: half, newton on
      pair build: half/multi/newton
      stencil: half/multi/3d/newton
      bin: standard
Setting up Verlet run ...
  Unit style    : real
  Current step  : 0
  Time step     : 10.0
Per MPI rank memory allocation (min/avg/max) = 17.40 | 17.52 | 18.28 Mbytes
Step PotEng E_bond E_vdwl E_coul KinEng Temp Press Density 
       0   -50472.541    3507.3266   -53235.227   -744.64087    268402.57          300    8.9798637  0.017080537 
     100   -18812.035    59129.898   -77189.634   -752.29896    237340.52     265.2812    0.8502247  0.017080537 
     200   -16592.408    61941.413   -77777.652   -756.16936    235720.89     263.4709   0.55596075  0.017080537 
     300   -13799.902    64454.547   -77493.914   -760.53447    233656.46    261.16344   0.17594688  0.017080537 
     400   -11410.792    66505.704   -77161.857    -754.6399    231945.78    259.25137  0.046664983  0.017080537 
     500   -9346.7899    68262.716   -76864.724   -744.78188    230545.84    257.68662 -0.061811141  0.017080537 
     600   -8101.1142    69367.595   -76714.883   -753.82583    230106.84    257.19594   -0.1053988  0.017080537 
     700   -7056.8181    70309.738   -76611.963   -754.59305    229827.98    256.88425 -0.023204817  0.017080537 
     800    -5621.866    71476.235   -76357.108   -740.99269    229335.49    256.33379 -0.094175297  0.017080537 
     900   -4771.6763    72448.246   -76478.703   -741.21962    229325.16    256.32224  -0.11262282  0.017080537 
    1000   -4439.4061    72722.996   -76416.611   -745.79058    229787.11    256.83857 -0.058456829  0.017080537 
    1100   -3741.6767     73568.72   -76566.315   -744.08216    229806.25    256.85996 -0.022352304  0.017080537 
    1200   -3153.2082    74162.615   -76566.783   -749.03946    230130.13    257.22197 -0.095724696  0.017080537 
    1300    -2996.986    74188.294   -76439.169   -746.11126     230669.1     257.8244 -0.032770935  0.017080537 
    1400   -2121.1293    75094.816   -76469.631   -746.31354    230677.15    257.83339 -0.022427793  0.017080537 
    1500   -1606.8199    75415.497   -76274.529   -747.78765    230972.47    258.16348 -0.022943817  0.017080537 
    1600   -1454.3211    75740.204   -76454.131     -740.394    231503.13    258.75661 -0.069667428  0.017080537 
    1700   -896.91531    76111.384   -76253.851   -754.44789    231679.98    258.95428 -0.017693297  0.017080537 
    1800   -683.63949    76297.049   -76226.805   -753.88363    232309.89    259.65835  0.042724455  0.017080537 
    1900   -390.10627    76676.727   -76318.935     -747.899    232597.03    259.97929 -0.047518297  0.017080537 
    2000    146.29009    76973.545   -76068.731   -758.52394    232832.14    260.24207  0.046731672  0.017080537 
    2100    157.88961    77099.156   -76191.887   -749.37947       233460    260.94385 -0.031451821  0.017080537 
    2200    194.66898    77084.451   -76131.835   -757.94749    234132.52    261.69554  0.015963304  0.017080537 
    2300     613.5555    77437.878   -76072.763   -751.55933    234350.13    261.93877   0.01204716  0.017080537 
    2400    1074.0452    77737.262   -75908.468    -754.7485    234544.39    262.15589 0.0033097651  0.017080537 
    2500    934.90023    77715.584   -76029.346   -751.33845    235397.16    263.10906 -0.0033049632  0.017080537 
    2600     1496.187    78163.702   -75911.193   -756.32197    235419.81    263.13438  0.071296324  0.017080537 
    2700    1224.3301    78044.388   -76062.445   -757.61276    236382.26    264.21013  0.042982179  0.017080537 
    2800    2131.0192    78707.014    -75811.64   -764.35517    236082.29    263.87485  0.057373532  0.017080537 
    2900    2337.3191    78884.464   -75788.445   -758.69974    236630.48    264.48757   0.01984052  0.017080537 
    3000    2586.4547    79020.844   -75682.349      -752.04       237174    265.09508  0.017117309  0.017080537 
    3100     2950.283    79389.189   -75687.136   -751.77045    237419.94    265.36997  0.040384021  0.017080537 
    3200    2982.2533     79414.69   -75688.804   -743.63205     237932.6    265.94299  0.009531986  0.017080537 
    3300    2805.8515    79185.972   -75641.032   -739.08777    238784.26    266.89491  0.038060351  0.017080537 
    3400    3477.9386    79667.038   -75443.448   -745.65127    238706.18    266.80763 -0.041310351  0.017080537 
    3500    3629.4621    79773.773   -75400.022   -744.28904    239109.31    267.25822 -0.023010054  0.017080537 
    3600    4243.6779    80183.289   -75184.008   -755.60248    239075.05    267.21993 -0.020141395  0.017080537 
    3700    4043.3723    80113.981   -75315.864   -754.74453    239814.85    268.04682  -0.03435018  0.017080537 
    3800    4415.0485    80420.948   -75246.259   -759.64019    239958.24    268.20709 -0.023743802  0.017080537 
    3900    4724.0344    80513.748   -75043.404      -746.31     240235.3    268.51676     0.111485  0.017080537 
    4000     4495.642    80414.335   -75169.864   -748.82905    241101.47     269.4849  0.066646375  0.017080537 
    4100    4843.9463    80724.775   -75142.078   -738.75101    241274.36    269.67814  0.030729324  0.017080537 
    4200    5143.1556      80851.1   -74966.737    -741.2067    241468.67    269.89533   0.05290319  0.017080537 
    4300    5197.9773    80837.071   -74895.692   -743.40165    241966.61    270.45189  0.084536121  0.017080537 
    4400    5096.1511    80757.791   -74916.016   -745.62423    242644.45    271.20953  0.075870683  0.017080537 
    4500    5421.0462    81021.138   -74855.708   -744.38387    242827.32    271.41392   0.12202291  0.017080537 
    4600    5566.9331    80977.716   -74662.401   -748.38263    243130.83    271.75317  0.073638558  0.017080537 
    4700    6127.9622    81433.347   -74557.605   -747.77962    243123.95    271.74548 0.00086006425  0.017080537 
    4800    5898.1985    81160.849   -74510.235   -752.41635    243835.07    272.54032  0.054838472  0.017080537 
    4900    5907.7865    81164.132    -74506.91    -749.4356    244276.99    273.03425  0.055212026  0.017080537 
    5000    5991.2798     81342.96   -74603.025   -748.65534     244708.8     273.5169  0.061932913  0.017080537 
    5100    6878.7067    81854.514   -74222.028   -753.77937    244351.18    273.11718  0.053793218  0.017080537 
    5200    7156.8731    81998.606   -74097.149   -744.58435    244623.55    273.42162  0.036189405  0.017080537 
    5300    7251.5976     82101.43   -74106.592   -743.24131    245046.98    273.89489  0.030021208  0.017080537 
    5400    7288.9308    82174.629   -74144.133   -741.56513    245374.88     274.2614  0.070758225  0.017080537 
    5500    7495.0229    82084.973    -73840.15   -749.80004    245718.62    274.64561  0.079953541  0.017080537 
    5600    7665.7004    82305.007   -73879.837   -759.46899    245940.47    274.89357  0.062083557  0.017080537 
    5700    7980.7109    82801.681   -74059.515   -761.45502    246031.72    274.99557 -0.050610801  0.017080537 
    5800    7601.1952    82126.201   -73763.559   -761.44704    246770.32    275.82111  0.058321994  0.017080537 
    5900    8098.5496    82684.802   -73830.765   -755.48731    246820.86     275.8776 -0.030876773  0.017080537 
    6000    7975.0349    82416.061   -73681.128   -759.89821    247395.06    276.51941  0.053245528  0.017080537 
    6100    8239.7253    82575.595   -73576.759   -759.11109    247601.43    276.75007  0.091350785  0.017080537 
    6200    8707.7053     82982.02   -73521.583   -752.73116    247445.44    276.57571   0.04532591  0.017080537 
    6300    8859.8812    83054.012   -73442.451   -751.67992    247820.72    276.99517  0.035038572  0.017080537 
    6400    9187.5157    83212.831   -73276.839   -748.47594    247946.59    277.13586 -0.025072247  0.017080537 
    6500    9416.5093     83306.21   -73146.477   -743.22312    248134.97    277.34642  0.046558799  0.017080537 
    6600    9547.1327    83579.698   -73291.598   -740.96753    248352.32    277.58935  0.057039356  0.017080537 
    6700    9728.4104    83571.365   -73094.503   -748.45162    248352.64    277.58972  0.035930502  0.017080537 
    6800    9503.9942     83292.75   -73030.129   -758.62706    248899.59    278.20105   0.14307952  0.017080537 
    6900    9440.2582    83363.571   -73177.954   -745.35957    249428.07    278.79175  -0.03668855  0.017080537 
    7000     9679.902    83383.621   -72950.717   -753.00118    249577.66    278.95895  0.028924525  0.017080537 
    7100    10366.474    83805.297   -72680.791   -758.03205    249364.59    278.72079  0.010830506  0.017080537 
    7200    10288.657    83822.154    -72771.21   -762.28717    249881.05    279.29805 0.00090598074  0.017080537 
    7300    10510.937    83884.112   -72614.003   -759.17235    250084.64    279.52561  0.066619725  0.017080537 
    7400    10344.199    83847.401   -72750.761   -752.44102    250490.52    279.97927  0.051394928  0.017080537 
    7500    10543.212    83643.865   -72337.972   -762.68158    250732.26    280.24947   0.14671229  0.017080537 
    7600    10306.523    83659.299   -72590.028   -762.74888    251323.65    280.91048   0.10537546  0.017080537 
    7700     10946.78    84176.164   -72454.705   -774.67852    251129.69    280.69369   0.10054987  0.017080537 
    7800    11160.295    84204.281   -72267.602    -776.3844    251369.48    280.96171  0.039766463  0.017080537 
    7900    11569.601    84540.617   -72206.374   -764.64156    251165.69    280.73392  0.015224688  0.017080537 
    8000    11643.828    84474.567   -72073.065   -757.67398    251352.52    280.94275 -0.019176772  0.017080537 
    8100    11778.289    84594.184   -72050.587    -765.3068    251518.41    281.12816 -0.062590745  0.017080537 
    8200    11562.828    84423.632   -72104.302   -756.50259    252100.29    281.77855   0.01199085  0.017080537 
    8300    12069.309    84795.544   -71970.124   -756.11159    251908.42     281.5641  0.031406701  0.017080537 
    8400    11677.067    84461.141   -72033.868   -750.20665    252639.83    282.38161  0.029612114  0.017080537 
    8500    12002.102    84561.003   -71808.198   -750.70313    252576.57     282.3109    0.1339956  0.017080537 
    8600    12167.482     84681.55    -71768.95    -745.1169     252680.1    282.42661  0.089711299  0.017080537 
    8700    12550.437     84970.65   -71665.708   -754.50486     252513.1    282.23996 -0.017421232  0.017080537 
    8800    12481.013    84728.483    -71491.31   -756.15941     252930.7    282.70672  0.041939236  0.017080537 
    8900     13101.22    85329.704   -71465.586   -762.89825    252648.62    282.39143  0.061386548  0.017080537 
    9000    12816.718    85059.626   -71483.241   -759.66647    253335.24    283.15888  0.035046425  0.017080537 
    9100    13381.576     85393.68   -71245.815   -766.28886    252934.43    282.71089 0.0074835045  0.017080537 
    9200    13274.696    85324.007    -71287.47   -761.84137     253272.1    283.08831 -0.0084130708  0.017080537 
    9300     13260.56     85249.39   -71222.488   -766.34292     253550.4    283.39938  0.092478048  0.017080537 
    9400    13128.818    85058.802   -71174.305   -755.67923    253907.33    283.79832  0.038468772  0.017080537 
    9500    13511.258    85281.972   -71015.331   -755.38328    253764.64    283.63883  0.055939945  0.017080537 
    9600     13574.51    85305.259   -70974.077   -756.67208     253981.8    283.88156    0.0735368  0.017080537 
    9700    13689.193    85338.558   -70878.288   -771.07766     254139.1    284.05738 -0.011303618  0.017080537 
    9800    13630.159    85094.406   -70697.935   -766.31234     254421.5    284.37302  0.031900036  0.017080537 
    9900    13900.409    85391.489   -70729.155   -761.92465    254480.46    284.43893  0.086263157  0.017080537 
   10000    14094.212    85457.452   -70601.075   -762.16489    254532.26    284.49682  0.049051577  0.017080537 
Loop time of 15.853 on 49152 procs for 10000 steps with 300146 atoms

Performance: 545.006 ns/day, 0.044 hours/ns, 630.794 timesteps/s
941.8% CPU use with 4096 MPI tasks x 12 OpenMP threads

MPI task timing breakdown:
Section |  min time  |  avg time  |  max time  |%varavg| %total
---------------------------------------------------------------
Pair    | 0.69648    | 2.7091     | 4.069      |  38.8 | 17.09
Bond    | 0.045039   | 0.056243   | 0.065369   |   1.1 |  0.35
Neigh   | 0.45888    | 0.7319     | 0.89758    |   9.4 |  4.62
Comm    | 5.3015     | 7.515      | 12.043     |  34.6 | 47.40
Output  | 0.021415   | 0.036858   | 0.060927   |   2.3 |  0.23
Modify  | 1.0088     | 4.5579     | 5.8838     |  30.0 | 28.75
Other   |            | 0.246      |            |       |  1.55

Nlocal:        73.2778 ave          77 max          69 min
Histogram: 1 30 219 738 0 1403 1110 495 92 8
Nghost:        2444.72 ave        4124 max         352 min
Histogram: 21 100 340 620 667 566 574 649 484 75
Neighs:        4762.66 ave        7878 max         859 min
Histogram: 24 127 316 440 594 696 832 770 277 20

Total # of neighbors = 19507850
Ave neighs/atom = 64.994536
Ave special neighs/atom = 1.9870130
Neighbor list builds = 500
Dangerous builds = 490

Please see the log.cite file for references relevant to this simulation

Total wall time: 0:00:19
