LAMMPS (29 Oct 2020)
  using 12 OpenMP thread(s) per MPI task
Reading data file ...
  orthogonal box = (-709.00000 -659.00000 -772.50000) to (709.00000 659.00000 772.50000)
  16 by 16 by 16 MPI processor grid
  reading atoms ...
  300146 atoms
  reading velocities ...
  300146 velocities
  scanning bonds ...
  1 = max bonds/atom
  reading bonds ...
  298197 bonds
Finding 1-2 1-3 1-4 neighbors ...
  special bond factors lj:    0.0      0.0      0.0     
  special bond factors coul:  0.0      0.0      0.0     
     2 = max # of 1-2 neighbors
     2 = max # of 1-3 neighbors
     4 = max # of 1-4 neighbors
     6 = max # of special neighbors
  special bonds CPU = 0.120 seconds
  read_data CPU = 2.912 seconds
Setting atom values ...
  9745 settings made for charge
Setting atom values ...
  1949 settings made for charge
Setting atom values ...
  5847 settings made for charge
Setting atom values ...
  3898 settings made for charge
Finding 1-2 1-3 1-4 neighbors ...
  special bond factors lj:    0.0      1.0      1.0     
  special bond factors coul:  0.0      1.0      1.0     
     2 = max # of 1-2 neighbors
     6 = max # of special neighbors
  special bonds CPU = 0.041 seconds
Neighbor list info ...
  update every 20 steps, delay 0 steps, check yes
  max neighbors/atom: 2000, page size: 100000
  master list distance cutoff = 38
  ghost atom cutoff = 38
  binsize = 11.5, bins = 124 115 135
  1 neighbor lists, perpetual/occasional/extra = 1 0 0
  (1) pair ljlambda, perpetual
      attributes: half, newton on
      pair build: half/multi/newton
      stencil: half/multi/3d/newton
      bin: standard
Setting up Verlet run ...
  Unit style    : real
  Current step  : 0
  Time step     : 10.0
Per MPI rank memory allocation (min/avg/max) = 17.40 | 17.52 | 18.28 Mbytes
Step PotEng E_bond E_vdwl E_coul KinEng Temp Press Density 
       0   -50472.541    3507.3266   -53235.227   -744.64087    268402.57          300    8.9798637  0.017080537 
     100   -18812.162     59130.75   -77190.818   -752.09423    237361.99     265.3052   0.85128088  0.017080537 
     200   -16601.793    61914.459    -77760.12   -756.13224    235743.38    263.49604   0.55953889  0.017080537 
     300   -13853.327    64383.001   -77476.746   -759.58198     233689.3    261.20015   0.17725485  0.017080537 
     400   -11513.234    66451.269   -77212.017   -752.48505    232176.93    259.50973  0.046816675  0.017080537 
     500   -9471.9336    68145.714   -76873.677   -743.96979    230902.34     258.0851 -0.072590409  0.017080537 
     600   -8113.7199    69352.612   -76719.687   -746.64528    230330.24    257.44564  -0.11584344  0.017080537 
     700   -7157.4138    70124.663   -76531.687   -750.38964     229989.9    257.06524 -0.038465415  0.017080537 
     800   -5802.4401    71311.485   -76373.103   -740.82171    229470.51     256.4847 -0.010637399  0.017080537 
     900   -5176.5217    71940.624   -76380.774   -736.37242    229631.28     256.6644 -0.063296645  0.017080537 
    1000   -4387.8255    72695.036   -76341.438   -741.42371    229734.75    256.78005 -0.059042976  0.017080537 
    1100   -3511.6664    73637.427   -76409.222   -739.87119    229768.72    256.81802 -0.037327153  0.017080537 
    1200   -2772.6938    74391.042   -76423.721   -740.01452    229708.56    256.75078 -0.038904455  0.017080537 
    1300   -2221.5992    74833.954   -76305.916     -749.637    229819.96    256.87529 -0.035268613  0.017080537 
    1400   -2028.0162    74994.467   -76280.667   -741.81612    230323.37    257.43796 -0.060220638  0.017080537 
    1500   -1515.0927    75404.873   -76175.421   -744.54565    230662.43    257.81694 -0.017114754  0.017080537 
    1600   -1392.7429    75727.951   -76374.084   -746.61051    231223.98     258.4446 -0.033189748  0.017080537 
    1700   -806.63606    76082.624   -76145.333    -743.9263     231388.1    258.62803 -0.024706329  0.017080537 
    1800   -586.84233    76493.873    -76333.72   -746.99583    231815.53    259.10578  0.030359559  0.017080537 
    1900   -653.73522    76401.515   -76310.489   -744.76077    232535.74    259.91078 -0.0029398319  0.017080537 
    2000   -233.51096    76648.566   -76142.125     -739.952    232841.62    260.25267  0.054320417  0.017080537 
    2100    25.693587    76861.621   -76089.701   -746.22716    233367.88    260.84088 -0.047329286  0.017080537 
    2200    967.74813    77490.622   -75772.049    -750.8246     233172.1    260.62206  0.034288995  0.017080537 
    2300    1030.6565    77832.912   -76061.446   -740.80929    233822.56     261.3491 -0.054269694  0.017080537 
    2400    905.74402    77503.197   -75864.662   -732.79096    234677.08    262.30421  0.060864846  0.017080537 
    2500     1603.297    78160.603   -75816.325   -740.98088    234634.51    262.25663  0.033470617  0.017080537 
    2600    1694.1949    78233.761   -75797.385   -742.18082    235235.04    262.92785  0.016847291  0.017080537 
    2700    1861.6078    78283.468   -75668.601   -753.25842    235796.58     263.5555  0.032385883  0.017080537 
    2800       2037.6    78497.731   -75710.126   -750.00479    236165.45     263.9678 0.0033152956  0.017080537 
    2900    2445.6609    78947.823   -75759.726   -742.43566     236372.5    264.19922  0.035353261  0.017080537 
    3000    2418.6764     78877.69   -75714.659   -744.35482    237130.78    265.04677  0.065545083  0.017080537 
    3100    2813.5189    79034.535   -75486.865   -734.15041    237410.42    265.35933   0.13156062  0.017080537 
    3200    2815.7862    79037.202   -75492.471   -728.94471    238025.94    266.04731   0.10197219  0.017080537 
    3300    3398.3715    79775.518   -75646.183   -730.96414    238147.08    266.18271 -0.052097604  0.017080537 
    3400    3992.7557    80210.508   -75476.533   -741.21918     238302.9    266.35688 -0.071308503  0.017080537 
    3500    3806.5661    79899.058   -75349.354   -743.13727    239054.98    267.19749  0.048806303  0.017080537 
    3600    4002.6621    79933.784   -75191.675   -739.44729    239407.01    267.59097  0.064791536  0.017080537 
    3700    4168.5214    80239.667   -75326.568   -744.57732    239779.57    268.00739  0.044075785  0.017080537 
    3800    4614.0907     80576.32   -75215.886   -746.34346    239938.38    268.18489  0.026731699  0.017080537 
    3900    4675.7707    80630.795   -75195.886   -759.13784    240338.02    268.63158  0.044153027  0.017080537 
    4000    4438.4025    80311.054   -75122.104   -750.54817    241037.88    269.41383  0.043888421  0.017080537 
    4100    4907.4863    80493.363   -74825.991   -759.88569    241174.18    269.56618   0.07405279  0.017080537 
    4200    5267.2328    80865.901   -74838.158   -760.51015    241314.96    269.72353  0.059768184  0.017080537 
    4300    5451.4191    80896.031   -74692.555   -752.05688    241518.36    269.95087  0.034898847  0.017080537 
    4400    5308.2917    80836.845   -74779.022   -749.53175    242209.36    270.72322  0.033399931  0.017080537 
    4500    5435.9066    80758.403   -74568.305   -754.19098       242609    271.16991   0.11749302  0.017080537 
    4600     5940.043    81126.672   -74431.519   -755.11032    242654.81    271.22111  0.075165789  0.017080537 
    4700    5749.3498    81118.805   -74618.991   -750.46454     243331.1    271.97702 0.0088361244  0.017080537 
    4800    6168.0229     81222.05   -74304.078   -749.94896    243364.21    272.01403  0.097614308  0.017080537 
    4900    6470.6321    81321.588   -74098.253     -752.703    243476.65     272.1397   0.08110876  0.017080537 
    5000     6734.932    81660.886   -74168.541   -757.41315    243623.79    272.30416  0.044052297  0.017080537 
    5100    6780.7218    81694.093   -74150.889    -762.4821    244032.14    272.76059  0.014778429  0.017080537 
    5200     6624.938    81451.137   -74069.079    -757.1203     244555.5    273.34556   0.12775554  0.017080537 
    5300    6943.2062    81742.602   -74042.694   -756.70138     244778.2    273.59447 -0.0032903978  0.017080537 
    5400    7541.5916    82166.361    -73864.66   -760.10944    244536.81    273.32467 -0.010339549  0.017080537 
    5500      7712.34    82306.544   -73831.166   -763.03801     244792.1    273.61001 -0.010976429  0.017080537 
    5600    7795.5436    82464.443   -73911.826   -757.07364    245224.99    274.09386 -0.027612904  0.017080537 
    5700    7885.7266    82227.999   -73592.297   -749.97498    245604.66    274.51823  0.046146447  0.017080537 
    5800    8212.2024    82436.766   -73468.046   -756.51831    245713.21    274.63955  0.060826814  0.017080537 
    5900    8058.6787    82264.372    -73450.27   -755.42346    246344.49    275.34515    0.1045237  0.017080537 
    6000    8542.6332    82716.523    -73414.56   -759.32908    246318.27    275.31585  0.048359985  0.017080537 
    6100    8135.9514    82213.541   -73326.699   -750.88984     247243.9    276.35045   0.10287648  0.017080537 
    6200    8704.4587    82867.961   -73412.149    -751.3533    247175.01    276.27345  0.024520348  0.017080537 
    6300    8929.9501    82956.903   -73284.637    -742.3157    247498.44    276.63495 0.0041010079  0.017080537 
    6400    8995.0202     83098.56   -73345.126    -758.4131    247886.16    277.06832 0.00088738778  0.017080537 
    6500    9337.7847    83129.899   -73042.596   -749.51838    247963.88    277.15518  0.029021213  0.017080537 
    6600    9118.9805     82985.34   -73105.598   -760.76151    248719.59    277.99986 0.0062791838  0.017080537 
    6700    9647.7765    83177.924   -72768.942   -761.20507    248675.59    277.95068  0.071176898  0.017080537 
    6800    9790.2429    83388.903   -72839.052   -759.60812    248697.95    277.97567  0.070481557  0.017080537 
    6900    9648.8425    83258.863   -72849.168   -760.85247    249142.09    278.47209   0.01471177  0.017080537 
    7000    10257.211     83749.41   -72734.346   -757.85349    249007.17     278.3213  0.013115811  0.017080537 
    7100    9999.8701    83587.231   -72828.243   -759.11828    249704.35    279.10056  0.054106562  0.017080537 
    7200     10353.54    83724.413   -72624.356   -746.51712    249782.79    279.18823  0.082706985  0.017080537 
    7300    10666.007    84067.898   -72635.584   -766.30727    249720.27    279.11834   0.03593634  0.017080537 
    7400    11046.677    84137.834   -72336.807   -754.34948    249667.88    279.05978 -0.029003324  0.017080537 
    7500     10928.48    84192.312   -72512.713   -751.11859    250124.93    279.57064 -0.0063578167  0.017080537 
    7600    10693.655    83868.066   -72423.322   -751.08878    250699.34    280.21268 0.0014758875  0.017080537 
    7700     11139.95    84070.357   -72167.657   -762.75018    250622.01    280.12624 -0.001412091  0.017080537 
    7800    11082.094    83980.518   -72140.599   -757.82425    251090.09    280.64942  0.056782336  0.017080537 
    7900    11389.127    84189.879   -72047.959   -752.79296    251204.15    280.77692  0.014254612  0.017080537 
    8000    11533.805    84245.979   -71965.658   -746.51556     251322.1    280.90875 -0.067598478  0.017080537 
    8100    11958.037    84569.398   -71864.237   -747.12426    251276.58    280.85787 0.0098345266  0.017080537 
    8200    11944.471    84446.599    -71755.01   -747.11707     251636.2    281.25983  0.082773221  0.017080537 
    8300    11823.737    84336.363   -71756.343   -756.28345    252173.33    281.86019  0.022566526  0.017080537 
    8400    11959.915    84421.582   -71696.516   -765.15073    252375.09     282.0857  0.062051917  0.017080537 
    8500    12412.102    84782.534   -71620.269   -750.16297    252251.03    281.94704 -0.027988484  0.017080537 
    8600    12570.139    84968.702    -71642.73   -755.83259    252433.48    282.15096 0.0043419569  0.017080537 
    8700    12912.503     85101.36     -71424.6   -764.25606    252444.97    282.16381  0.075081204  0.017080537 
    8800    12554.214     84747.71   -71442.761   -750.73494    253290.27    283.10862  0.050177249  0.017080537 
    8900    12798.118    84818.049   -71263.125   -756.80672    253241.82    283.05447   0.06102616  0.017080537 
    9000     13167.66    85140.717   -71218.995   -754.06207    252973.94    282.75504  0.060101202  0.017080537 
    9100    12977.078    84846.914    -71111.98   -757.85644    253448.19    283.28513   0.11324183  0.017080537 
    9200    13049.588    84961.183   -71153.223   -758.37191    253626.98    283.48497  0.088109234  0.017080537 
    9300    13474.104    85359.957   -71122.476     -763.377    253551.71    283.40084  0.039877039  0.017080537 
    9400    13959.075     85692.44   -70974.118   -759.24781    253389.21     283.2192  0.098997861  0.017080537 
    9500    13771.446    85404.476   -70873.938   -759.09244    253904.68    283.79536  0.072046007  0.017080537 
    9600    13969.038    85460.683   -70744.759   -746.88554    254034.15    283.94007  0.069941403  0.017080537 
    9700    14136.098    85693.915   -70802.402   -755.41498    254190.69    284.11505  0.027804115  0.017080537 
    9800     14362.34    85711.128   -70600.958   -747.82956    254093.64    284.00657   0.12231735  0.017080537 
    9900    14350.366     85745.37   -70647.143   -747.86169    254431.47    284.38416  0.068118348  0.017080537 
   10000    14315.583    85490.005    -70431.78   -742.64202    254661.34    284.64109  0.045461467  0.017080537 
Loop time of 16.5971 on 49152 procs for 10000 steps with 300146 atoms

Performance: 520.572 ns/day, 0.046 hours/ns, 602.514 timesteps/s
937.2% CPU use with 4096 MPI tasks x 12 OpenMP threads

MPI task timing breakdown:
Section |  min time  |  avg time  |  max time  |%varavg| %total
---------------------------------------------------------------
Pair    | 0.79739    | 2.7037     | 4.0263     |  38.6 | 16.29
Bond    | 0.046796   | 0.056258   | 0.064729   |   1.1 |  0.34
Neigh   | 0.46129    | 0.75154    | 0.9229     |   9.1 |  4.53
Comm    | 5.3644     | 7.6228     | 12.279     |  37.8 | 45.93
Output  | 0.018967   | 0.03659    | 0.052568   |   2.1 |  0.22
Modify  | 1.1474     | 5.1785     | 6.7542     |  33.2 | 31.20
Other   |            | 0.2478     |            |       |  1.49

Nlocal:        73.2778 ave          77 max          68 min
Histogram: 1 3 46 234 721 1343 1118 534 88 8
Nghost:        2452.47 ave        4121 max         228 min
Histogram: 19 61 260 589 705 578 593 648 561 82
Neighs:        4770.32 ave        8014 max         942 min
Histogram: 24 167 373 426 594 729 840 711 207 25

Total # of neighbors = 19539232
Ave neighs/atom = 65.099092
Ave special neighs/atom = 1.9870130
Neighbor list builds = 500
Dangerous builds = 490

Please see the log.cite file for references relevant to this simulation

Total wall time: 0:00:19
