LAMMPS (29 Oct 2020)
  using 12 OpenMP thread(s) per MPI task
Reading data file ...
  orthogonal box = (-709.00000 -659.00000 -772.50000) to (709.00000 659.00000 772.50000)
  8 by 8 by 8 MPI processor grid
  reading atoms ...
  300146 atoms
  reading velocities ...
  300146 velocities
  scanning bonds ...
  1 = max bonds/atom
  reading bonds ...
  298197 bonds
Finding 1-2 1-3 1-4 neighbors ...
  special bond factors lj:    0.0      0.0      0.0     
  special bond factors coul:  0.0      0.0      0.0     
     2 = max # of 1-2 neighbors
     2 = max # of 1-3 neighbors
     4 = max # of 1-4 neighbors
     6 = max # of special neighbors
  special bonds CPU = 0.048 seconds
  read_data CPU = 2.141 seconds
Setting atom values ...
  9745 settings made for charge
Setting atom values ...
  1949 settings made for charge
Setting atom values ...
  5847 settings made for charge
Setting atom values ...
  3898 settings made for charge
Finding 1-2 1-3 1-4 neighbors ...
  special bond factors lj:    0.0      1.0      1.0     
  special bond factors coul:  0.0      1.0      1.0     
     2 = max # of 1-2 neighbors
     6 = max # of special neighbors
  special bonds CPU = 0.009 seconds
Neighbor list info ...
  update every 20 steps, delay 0 steps, check yes
  max neighbors/atom: 2000, page size: 100000
  master list distance cutoff = 38
  ghost atom cutoff = 38
  binsize = 11.5, bins = 124 115 135
  1 neighbor lists, perpetual/occasional/extra = 1 0 0
  (1) pair ljlambda, perpetual
      attributes: half, newton on
      pair build: half/multi/newton
      stencil: half/multi/3d/newton
      bin: standard
Setting up Verlet run ...
  Unit style    : real
  Current step  : 0
  Time step     : 10.0
Per MPI rank memory allocation (min/avg/max) = 17.64 | 17.89 | 32.85 Mbytes
Step PotEng E_bond E_vdwl E_coul KinEng Temp Press Density 
       0   -50472.541    3507.3266   -53235.227   -744.64087    268402.57          300    8.9798637  0.017080537 
     100   -18772.738     59205.05   -77225.788   -751.99929    237300.81    265.23682   0.83515995  0.017080537 
     200   -16538.774    62026.879   -77808.894   -756.75926    235680.86    263.42616    0.5489733  0.017080537 
     300   -13561.791    64638.289   -77439.245   -760.83552    233418.47    260.89744   0.19157629  0.017080537 
     400   -11178.177    66848.431   -77280.621   -745.98642    231821.66    259.11264 -0.018412577  0.017080537 
     500   -9714.8454     67987.33   -76959.833   -742.34255    231070.03    258.27253 -0.080346056  0.017080537 
     600   -8181.5996    69276.436   -76707.689    -750.3468    230192.08    257.29122 -0.071054709  0.017080537 
     700   -6743.5235     70440.81    -76439.13    -745.2035    229485.43    256.50137 -0.037061558  0.017080537 
     800   -5915.9227    71466.336   -76625.867    -756.3917    229310.63      256.306 -0.070868944  0.017080537 
     900   -5262.4902    72090.685    -76608.24   -744.93566    229464.16     256.4776 -0.050262308  0.017080537 
    1000   -4476.8713    72733.677   -76463.799   -746.74939    229516.48    256.53608 -0.068638463  0.017080537 
    1100   -3673.6651    73467.636   -76399.015   -742.28568    229436.02    256.44616 -0.085523605  0.017080537 
    1200   -3098.8625    74129.728   -76481.934   -746.65604    229510.26    256.52913 -0.042148739  0.017080537 
    1300   -2703.5198    74457.701   -76409.869   -751.35164    229857.55     256.9173 -0.015874192  0.017080537 
    1400   -2331.0436    74917.991   -76497.929   -751.10535    230257.89    257.36478 -0.025431363  0.017080537 
    1500   -1705.2527     75616.82    -76569.27   -752.80268    230282.55    257.39234  -0.06114726  0.017080537 
    1600   -1452.2457    75642.988   -76347.404   -747.82969    230726.66    257.88873  0.071382407  0.017080537 
    1700   -1199.1776    76206.314    -76658.23   -747.26223    231161.33    258.37457 -0.034503141  0.017080537 
    1800   -813.68252    76285.944   -76351.835   -747.79193    231560.42    258.82064 -0.036519186  0.017080537 
    1900    -460.5646    76573.587   -76277.008   -757.14409    231950.12    259.25622 -0.022821011  0.017080537 
    2000   -259.59687    76745.594   -76247.651   -757.53991    232462.42    259.82883 -0.039023859  0.017080537 
    2100     689.0837     77537.63   -76093.781   -754.76478    232149.55    259.47913 -0.00051172827  0.017080537 
    2200    127.68748    77268.789   -76388.458   -752.64299    233338.15    260.80766  0.031099018  0.017080537 
    2300    409.51929    77374.353   -76218.699   -746.13483    233865.19    261.39674 -0.0005907516  0.017080537 
    2400    782.33819    77577.983   -76049.454   -746.19027       234171    261.73855 0.0061716482  0.017080537 
    2500    972.10437    77683.132   -75958.332   -752.69521    234727.24    262.36028  0.014339104  0.017080537 
    2600     1634.579     78335.48   -75952.976   -747.92528    234634.72    262.25686 0.00099300858  0.017080537 
    2700    1808.4487     78431.39   -75877.052    -745.8897    235078.53    262.75292 -0.011098067  0.017080537 
    2800    1921.4286    78581.967   -75911.839   -748.69934    235576.85    263.30991 -0.0081221161  0.017080537 
    2900    2051.2798    78549.536   -75754.844   -743.41174    236044.57    263.83268 -0.029765333  0.017080537 
    3000    2283.7764    78668.597   -75645.474   -739.34627    236479.41    264.31871  0.026659888  0.017080537 
    3100    2335.1106    78786.771   -75706.339   -745.32152    236997.96    264.89831  0.060699101  0.017080537 
    3200    2924.2104    79398.254   -75738.483   -735.56047    237192.74    265.11602 0.0064730368  0.017080537 
    3300    3013.5821    79222.317   -75472.629   -736.10596    237741.75    265.72967   0.12763029  0.017080537 
    3400    2912.6601    79327.929   -75671.319   -743.95041    238567.05    266.65212  0.034653598  0.017080537 
    3500    3337.8956    79789.801   -75709.752   -742.15363    238708.17    266.80986  0.017587762  0.017080537 
    3600     3760.644    80057.515   -75552.595    -744.2757     239086.8    267.23306 0.0094197131  0.017080537 
    3700    3906.6803    79877.159   -75231.387   -739.09142    239425.67    267.61183   0.01981996  0.017080537 
    3800    3870.3059    80120.425   -75499.138   -750.98167       240150    268.42143 -0.012075035  0.017080537 
    3900    4299.2463    80363.808   -75312.983   -751.57912    240194.82    268.47152  0.024968795  0.017080537 
    4000    4534.0515    80289.635   -75008.578   -747.00561    240347.27    268.64192  0.048537157  0.017080537 
    4100    4349.2142    80125.046   -75031.771    -744.0605    241215.45    269.61231  0.041379217  0.017080537 
    4200    4754.9826    80475.759    -74964.81   -755.96697    241391.69     269.8093  0.050178991  0.017080537 
    4300    5277.4876    80875.587   -74841.017   -757.08249    241422.21     269.8434  0.021136971  0.017080537 
    4400    5416.2205    81167.348   -75001.848   -749.27927    242012.98    270.50372  0.083278724  0.017080537 
    4500    5617.9509    81242.426   -74875.808   -748.66692    242286.88    270.80986  0.035079774  0.017080537 
    4600    5580.5463    81239.816   -74908.971   -750.29856    242795.71     271.3786  0.071120389  0.017080537 
    4700    5847.3462    81431.583   -74829.894   -754.34253    243055.55    271.66903   0.11145186  0.017080537 
    4800    5820.3005    81272.631   -74703.426   -748.90444    243588.53    272.26476  0.028674496  0.017080537 
    4900    6154.5173    81479.696   -74586.646   -738.53227    243738.75    272.43266  0.049891056  0.017080537 
    5000    6423.9431    81598.418    -74433.72   -740.75511    243950.69    272.66954 -0.025671733  0.017080537 
    5100    6671.6198    81894.534   -74481.537   -741.37733    244150.74    272.89315 0.0092207488  0.017080537 
    5200    6867.0075    81945.365   -74338.561   -739.79688    244441.45    273.21809  0.032395608  0.017080537 
    5300    6997.7163    82210.404   -74463.218   -749.46957    244840.87    273.66452 -0.027891413  0.017080537 
    5400    6871.6306    81795.585    -74173.04    -750.9139    245308.31    274.18699   0.04339497  0.017080537 
    5500    7196.9405    82025.171   -74082.437   -745.79354    245459.24    274.35569  0.059575836  0.017080537 
    5600    7517.3819    82280.281   -74019.891   -743.00736    245492.64    274.39302  0.080952715  0.017080537 
    5700    7276.8583    82089.221   -74059.421   -752.94215    246122.57    275.09711  0.085876904  0.017080537 
    5800    7690.1231    82431.061   -73987.362   -753.57555    246333.03    275.33235   0.10210272  0.017080537 
    5900     7682.746    82551.974   -74120.157   -749.07147    246765.32    275.81552  0.023212484  0.017080537 
    6000    7832.3719     82586.69   -74006.663   -747.65487    247185.35      276.285  0.045005958  0.017080537 
    6100    8062.9437    82675.275   -73858.936   -753.39527    247313.16    276.42786   0.10228282  0.017080537 
    6200    8488.4984    83070.796   -73825.952   -756.34623    247462.16     276.5944   0.02842693  0.017080537 
    6300    8305.9358    82870.102   -73807.316   -756.84944    248074.79    277.27915   0.06776139  0.017080537 
    6400    8698.0184    83007.722   -73559.027   -750.67607       248114    277.32298  0.094120747  0.017080537 
    6500    8500.2516    82895.582   -73650.664   -744.66675     248615.8    277.88385  0.086591635  0.017080537 
    6600    9190.7998    83322.664   -73388.819   -743.04486    248176.23    277.39254  0.082152346  0.017080537 
    6700    8995.7971    83323.549   -73579.214   -748.53779    248751.83    278.03589  0.029688293  0.017080537 
    6800     9365.174    83398.864   -73288.058   -745.63211    248819.25    278.11125    0.0257822  0.017080537 
    6900    9263.8134    83199.631   -73188.801    -747.0171    249181.72     278.5164   0.07478915  0.017080537 
    7000    9769.0656    83698.252   -73176.609   -752.57725    249114.77    278.44156   0.05231109  0.017080537 
    7100    9777.5352    83715.069   -73189.838   -747.69575    249547.56     278.9253  0.081433357  0.017080537 
    7200    10133.612    83731.959   -72848.262   -750.08567    249457.05    278.82414   0.11145876  0.017080537 
    7300     10376.55    83890.701   -72747.585    -766.5663    249587.05    278.96944  0.055313576  0.017080537 
    7400    10185.521     83655.63   -72716.747   -753.36233    250023.26      279.457  0.048383861  0.017080537 
    7500    10578.309     84031.59   -72698.631   -754.64914     249930.5    279.35332  0.080025358  0.017080537 
    7600    10606.606    83903.864   -72552.866   -744.39245    250249.74    279.71015  0.018620087  0.017080537 
    7700    10788.405    83941.506   -72402.625   -750.47595    250437.33    279.91982  0.078282565  0.017080537 
    7800    11057.365    84220.354   -72414.973   -748.01629     250646.3    280.15339   0.04165723  0.017080537 
    7900    11211.423    84125.068   -72169.473   -744.17259    250773.43    280.29549  0.069416464  0.017080537 
    8000    11337.019    84150.412   -72054.759   -758.63394    251120.54    280.68347  0.061318948  0.017080537 
    8100     11432.83    84217.631   -72020.427   -764.37379    251310.81    280.89613   0.12922584  0.017080537 
    8200    11502.365    84151.099   -71873.327    -775.4067    251657.11    281.28319   0.12859872  0.017080537 
    8300    11378.032    83988.643   -71847.374   -763.23751    252039.59     281.7107    0.1062403  0.017080537 
    8400    12130.161    84783.649   -71888.072   -765.41661    251685.68    281.31513 -0.0015480016  0.017080537 
    8500    12066.568    84594.667   -71759.944   -768.15481    251997.72    281.66391   0.07110884  0.017080537 
    8600    12187.845    84682.403    -71734.62   -759.93781    252133.29    281.81543  0.048059706  0.017080537 
    8700    12257.838    84694.216   -71681.606    -754.7721     252321.3    282.02558   0.11152523  0.017080537 
    8800     12412.18    84822.565   -71655.781   -754.60319    252515.28     282.2424  0.017532385  0.017080537 
    8900    12543.695    84610.053   -71308.927   -757.43091    252741.69    282.49545   0.10408093  0.017080537 
    9000    12607.871    84771.758   -71419.814   -744.07213    252899.84    282.67223  0.058706151  0.017080537 
    9100     12559.42    84872.852   -71564.763   -748.66911    253257.58    283.07208  0.072073342  0.017080537 
    9200    13038.392     84968.74   -71181.489   -748.85931       253031    282.81883   0.10060797  0.017080537 
    9300    13139.638    85132.843   -71237.045   -756.15997    253277.78    283.09466  0.066321561  0.017080537 
    9400    12988.691    84957.321   -71208.409   -760.22004    253777.84    283.65358  0.025750502  0.017080537 
    9500    13302.055    85157.618   -71098.708   -756.85459    253852.25    283.73676 0.0082142369  0.017080537 
    9600    13250.523    84974.255   -70970.131   -753.60056    254116.04     284.0316  0.076490576  0.017080537 
    9700    13780.941    85542.371   -71005.435   -755.99523     253780.9    283.65701 -0.048597616  0.017080537 
    9800    13472.129    85237.039   -71016.749   -748.16195    254381.79    284.32864  0.035380702  0.017080537 
    9900    13511.614    85209.188   -70939.857   -757.71741    254666.53     284.6469  0.033506759  0.017080537 
   10000    14087.161    85839.406   -70987.434   -764.81133    254335.21    284.27657  0.036460132  0.017080537 
Loop time of 40.902 on 6144 procs for 10000 steps with 300146 atoms

Performance: 211.237 ns/day, 0.114 hours/ns, 244.487 timesteps/s
940.8% CPU use with 512 MPI tasks x 12 OpenMP threads

MPI task timing breakdown:
Section |  min time  |  avg time  |  max time  |%varavg| %total
---------------------------------------------------------------
Pair    | 9.9944     | 20.851     | 30.731     |  86.9 | 50.98
Bond    | 0.38771    | 0.43171    | 0.46451    |   2.9 |  1.06
Neigh   | 3.4054     | 3.5027     | 3.6115     |   2.2 |  8.56
Comm    | 4.291      | 12.659     | 24.122     | 111.3 | 30.95
Output  | 0.011775   | 0.03746    | 0.079906   |   8.6 |  0.09
Modify  | 1.361      | 3.1746     | 6.0552     |  63.3 |  7.76
Other   |            | 0.2455     |            |       |  0.60

Nlocal:        586.223 ave         589 max         583 min
Histogram: 5 35 0 91 0 175 130 0 68 8
Nghost:        4458.39 ave        7395 max         694 min
Histogram: 2 3 13 74 126 121 62 25 53 33
Neighs:        38424.8 ave       54513 max       19034 min
Histogram: 9 18 44 61 80 88 76 68 49 19

Total # of neighbors = 19673482
Ave neighs/atom = 65.546374
Ave special neighs/atom = 1.9870130
Neighbor list builds = 500
Dangerous builds = 490

Please see the log.cite file for references relevant to this simulation

Total wall time: 0:00:43
