LAMMPS (29 Oct 2020)
  using 12 OpenMP thread(s) per MPI task
Reading data file ...
  orthogonal box = (-709.00000 -659.00000 -772.50000) to (709.00000 659.00000 772.50000)
  8 by 8 by 8 MPI processor grid
  reading atoms ...
  300146 atoms
  reading velocities ...
  300146 velocities
  scanning bonds ...
  1 = max bonds/atom
  reading bonds ...
  298197 bonds
Finding 1-2 1-3 1-4 neighbors ...
  special bond factors lj:    0.0      0.0      0.0     
  special bond factors coul:  0.0      0.0      0.0     
     2 = max # of 1-2 neighbors
     2 = max # of 1-3 neighbors
     4 = max # of 1-4 neighbors
     6 = max # of special neighbors
  special bonds CPU = 0.049 seconds
  read_data CPU = 2.146 seconds
Setting atom values ...
  9745 settings made for charge
Setting atom values ...
  1949 settings made for charge
Setting atom values ...
  5847 settings made for charge
Setting atom values ...
  3898 settings made for charge
Finding 1-2 1-3 1-4 neighbors ...
  special bond factors lj:    0.0      1.0      1.0     
  special bond factors coul:  0.0      1.0      1.0     
     2 = max # of 1-2 neighbors
     6 = max # of special neighbors
  special bonds CPU = 0.010 seconds
Neighbor list info ...
  update every 20 steps, delay 0 steps, check yes
  max neighbors/atom: 2000, page size: 100000
  master list distance cutoff = 38
  ghost atom cutoff = 38
  binsize = 11.5, bins = 124 115 135
  1 neighbor lists, perpetual/occasional/extra = 1 0 0
  (1) pair ljlambda, perpetual
      attributes: half, newton on
      pair build: half/multi/newton
      stencil: half/multi/3d/newton
      bin: standard
Setting up Verlet run ...
  Unit style    : real
  Current step  : 0
  Time step     : 10.0
Per MPI rank memory allocation (min/avg/max) = 17.64 | 17.89 | 32.85 Mbytes
Step PotEng E_bond E_vdwl E_coul KinEng Temp Press Density 
       0   -50472.541    3507.3266   -53235.227   -744.64087    268402.57          300    8.9798637  0.017080537 
     100   -18771.188    59207.927   -77227.204   -751.91178    237305.02    265.24152    0.8358395  0.017080537 
     200   -16535.465    62026.673   -77805.218   -756.92003    235730.99    263.48219   0.55078784  0.017080537 
     300   -13603.494    64664.643    -77507.21   -760.92688    233487.06    260.97409   0.18265031  0.017080537 
     400   -11128.911    66822.132   -77207.603   -743.44088    231824.23    259.11551  0.017106381  0.017080537 
     500   -9456.8133     68215.02   -76927.995   -743.83753    230977.55    258.16916 -0.049215352  0.017080537 
     600   -7822.5653    69540.358   -76610.153   -752.77027    230031.83    257.11211 -0.071968049  0.017080537 
     700   -6898.7607    70314.282   -76468.164   -744.87946    229976.73    257.05052 -0.051516399  0.017080537 
     800   -6070.8942    71284.901   -76609.854   -745.94196    229952.81    257.02378 -0.027618037  0.017080537 
     900   -4942.9473    72252.181   -76460.055   -735.07267    229538.51    256.56071 -0.067143032  0.017080537 
    1000   -4292.1955    72953.234   -76502.615   -742.81437    229694.87    256.73548  -0.14238366  0.017080537 
    1100   -3648.3072    73566.074   -76478.498   -735.88261    229763.18    256.81183 -0.030501014  0.017080537 
    1200   -3235.6746    73927.557   -76431.586   -731.64629    230155.91    257.25079 -0.027022199  0.017080537 
    1300   -2851.0588    74315.055   -76425.049   -741.06505    230580.49    257.72535 -0.038947141  0.017080537 
    1400     -2140.46    74955.829   -76355.639   -740.65058    230490.72    257.62502 -0.051344807  0.017080537 
    1500   -1758.1296    75417.421   -76442.669   -732.88106    230795.75    257.96596 -0.069019161  0.017080537 
    1600   -1498.0114    75577.318   -76339.462    -735.8669     231305.2    258.53538 -0.0063489047  0.017080537 
    1700   -969.78947    76086.214   -76315.485   -740.51908    231519.31     258.7747 -0.040088561  0.017080537 
    1800   -899.51163    76320.801   -76472.867    -747.4458    232198.89    259.53428  0.023982147  0.017080537 
    1900    -510.0588    76611.847    -76373.44   -748.46576    232538.72    259.91412  0.023745198  0.017080537 
    2000   -141.84876    76784.987   -76179.245   -747.59056    232938.15    260.36056  0.061165414  0.017080537 
    2100    242.36292    77271.367   -76270.468   -758.53629    233121.35    260.56534  0.013421111  0.017080537 
    2200    431.27122    77419.197   -76236.053   -751.87278    233654.43    261.16117    0.0118819  0.017080537 
    2300    657.61978    77588.078   -76185.245   -745.21311     234040.8    261.59303 -0.014046719  0.017080537 
    2400     1033.428    77808.452   -76033.938   -741.08522    234312.33    261.89652  0.040293561  0.017080537 
    2500    1095.8832    77945.857   -76117.418   -732.55599    235067.22    262.74028 0.0054104061  0.017080537 
    2600    1351.9183    78168.595   -76077.973   -738.70359     235503.4    263.22781 -0.033053642  0.017080537 
    2700    1763.0874    78337.628    -75831.07   -743.47057    235706.98    263.45536 -0.047131721  0.017080537 
    2800    2029.7917    78571.424   -75805.883   -735.75016    236080.25    263.87256 0.0006947007  0.017080537 
    2900     2529.788    78975.483   -75702.578   -743.11686    236226.69    264.03625  0.035313102  0.017080537 
    3000    2882.7253    79270.584   -75633.279   -754.57966    236438.84    264.27337 0.0050920784  0.017080537 
    3100    2687.8011    79123.278   -75680.856   -754.62097    237292.97    265.22806 -0.022409098  0.017080537 
    3200    3185.7243    79632.153   -75692.694   -753.73512    237253.83     265.1843  -0.10208113  0.017080537 
    3300    3074.1789    79556.114   -75731.363   -750.57242    238091.93    266.12108 0.0057894373  0.017080537 
    3400    3330.2822    79732.552   -75651.851   -750.41888    238379.07    266.44201  0.057977264  0.017080537 
    3500    3435.5642    79894.565   -75706.571   -752.42994    238877.78    266.99943 -0.002300741  0.017080537 
    3600    3723.7461    79922.223   -75450.284   -748.19359     239032.9    267.17282 0.0094872574  0.017080537 
    3700       3837.6    80013.748   -75430.661   -745.48688    239562.05    267.76426  0.040090974  0.017080537 
    3800    3913.0223    79997.109   -75337.094    -746.9935     240096.7    268.36185  0.040085438  0.017080537 
    3900     4686.333    80513.951   -75075.864   -751.75418     239962.7    268.21208  0.021456986  0.017080537 
    4000    4584.2202    80560.457   -75225.625   -750.61113    240659.25    268.99063    0.0117369  0.017080537 
    4100    4795.8118    80661.321   -75107.218   -758.29101    241006.15    269.37836 0.0024095273  0.017080537 
    4200    5048.5582     80860.99   -75054.292   -758.13913    241307.65    269.71536  0.075418875  0.017080537 
    4300    5284.1614    80951.768   -74907.624   -759.98301    241656.26      270.105  0.087042722  0.017080537 
    4400    5377.8423    81144.211   -75014.457   -751.91112    242016.16    270.50727 -0.0063158755  0.017080537 
    4500     5689.141    81170.328   -74727.734   -753.45332    242311.86    270.83779  0.021452835  0.017080537 
    4600    5866.2015    81427.323   -74810.737   -750.38385    242707.14     271.2796  0.037242399  0.017080537 
    4700    6188.6681    81683.559   -74742.469   -752.42166    242908.85    271.50505  0.011971154  0.017080537 
    4800    5825.4843    81305.951    -74733.47   -746.99728    243691.99    272.38039  0.063552222  0.017080537 
    4900    6210.0644    81267.085   -74302.831   -754.18996    243698.51    272.38768   0.17361414  0.017080537 
    5000     6206.256    81482.109   -74528.914   -746.93859    244116.89    272.85531  0.081172153  0.017080537 
    5100    6492.9033     81506.87    -74269.71   -744.25743    244360.58    273.12769  0.072723429  0.017080537 
    5200    6595.6807    81494.728    -74143.92    -755.1271    244785.98    273.60317  0.053808574  0.017080537 
    5300    7110.8373    82041.507   -74174.291     -756.379    244763.43    273.57797  0.016402805  0.017080537 
    5400    7239.6944     82056.95     -74068.8   -748.45543    245031.67    273.87779 -0.0023097884  0.017080537 
    5500    7431.6985    82079.401   -73886.704   -760.99796    245353.65    274.23767  0.043317185  0.017080537 
    5600    7601.0435    82199.951   -73848.382   -750.52581    245620.53    274.53596  0.031965527  0.017080537 
    5700    7852.2259    82333.437   -73722.917   -758.29451    245596.41    274.50901   0.05265495  0.017080537 
    5800    7909.0444    82436.139   -73769.786   -757.30922    246043.71    275.00897  0.017722032  0.017080537 
    5900    8010.9802     82483.92   -73714.053   -758.88637    246441.13    275.45317  0.069668529  0.017080537 
    6000    8101.6795    82522.429   -73656.651   -764.09818    246720.91    275.76589  0.080684772  0.017080537 
    6100    8657.1961    82931.277   -73510.401   -763.67946    246516.87    275.53783 0.0047995904  0.017080537 
    6200    8516.3557    82895.115   -73609.189   -769.57026    247019.64    276.09979 -0.001629405  0.017080537 
    6300    8647.6066    82993.879   -73581.845    -764.4274     247312.5    276.42713 -0.041900052  0.017080537 
    6400    8630.1194    82767.995   -73374.515   -763.36063    247626.17    276.77772   0.09060813  0.017080537 
    6500    8548.9566    82781.243   -73471.235   -761.05086     248165.2     277.3802  0.072854109  0.017080537 
    6600    8872.2814    82890.849   -73262.805   -755.76266    248213.91    277.43465    0.1036443  0.017080537 
    6700    8979.9171    82944.074    -73208.96   -755.19628    248458.19    277.70768  0.093258183  0.017080537 
    6800    9326.7754    83047.026    -72964.42   -755.83031    248417.19    277.66186  0.073416611  0.017080537 
    6900    9533.5245    83244.704   -72955.467   -755.71243    248533.57    277.79194   0.12717624  0.017080537 
    7000     9510.972    83313.883   -73053.301   -749.61027    248850.29    278.14595 -0.007187138  0.017080537 
    7100    9588.0099    83365.712   -73027.766   -749.93659    249308.89    278.65854  0.011206756  0.017080537 
    7200    10093.398    83804.527   -72950.019   -761.11046    249281.67    278.62811  0.085827831  0.017080537 
    7300    10146.846    83534.144   -72621.003   -766.29523    249615.91     279.0017   0.13712324  0.017080537 
    7400    10077.578    83741.642   -72908.395   -755.66873    250060.26    279.49837  0.051202754  0.017080537 
    7500    10754.091    84084.773   -72579.356   -751.32599    249824.01     279.2343 0.0038776798  0.017080537 
    7600    10612.318    84147.077   -72783.005    -751.7543    250416.79    279.89686 -0.020492182  0.017080537 
    7700    11090.544     84297.93   -72451.941   -755.44515    250219.44    279.67628  0.072846418  0.017080537 
    7800    11103.852    84123.114   -72257.679   -761.58266    250525.03    280.01785   0.08585002  0.017080537 
    7900    11131.782    84270.428   -72384.016   -754.62969    250917.93    280.45699 -0.018552232  0.017080537 
    8000    11756.049    84874.301    -72351.59   -766.66155       250784     280.3073 -0.023529727  0.017080537 
    8100    11777.834    84577.767   -72037.401   -762.53247    251230.49    280.80636  0.031551287  0.017080537 
    8200    11411.809    84413.078   -72238.149   -763.12004    251828.49    281.47475  0.031812787  0.017080537 
    8300    11444.008    84472.301   -72266.164   -762.12913    252197.95    281.88771  0.060368966  0.017080537 
    8400    12071.138    84741.177   -71913.785   -756.25361    251807.29    281.45106   0.10997303  0.017080537 
    8500    11623.695     84568.86   -72188.504   -756.66057    252490.85    282.21509   0.10663516  0.017080537 
    8600    12321.308    84988.533   -71914.836   -752.38861    252184.24    281.87238  0.078543223  0.017080537 
    8700    12212.881    84819.876    -71853.61   -753.38534    252482.26    282.20549  0.017174506  0.017080537 
    8800    12181.903    84611.559   -71676.012   -753.64413    252761.93    282.51808  0.046092295  0.017080537 
    8900    12367.296    84780.185   -71656.262   -756.62754    252834.33    282.59901  0.059059581  0.017080537 
    9000    12927.228    85245.784   -71570.878   -747.67764    252509.28    282.23568  0.085671469  0.017080537 
    9100    12808.898     84955.93   -71392.108   -754.92433    252708.53     282.4584   0.11698651  0.017080537 
    9200    12768.608    85096.391   -71567.432   -760.35067    253144.97    282.94621  0.006653355  0.017080537 
    9300     12907.04    84995.325   -71327.286    -760.9994    253250.75    283.06445   0.10209977  0.017080537 
    9400    13258.324    85435.736   -71426.172   -751.23902    253044.33    282.83372  0.001781851  0.017080537 
    9500    13047.021    85157.588   -71347.288   -763.27824       253573    283.42464   0.00398259  0.017080537 
    9600    13223.759    85229.901   -71253.584   -752.55756    253543.75    283.39194  0.051077528  0.017080537 
    9700     13316.12    85408.337   -71335.894   -756.32413    253751.76    283.62444  0.030569855  0.017080537 
    9800    13122.248    84985.954     -71108.3    -755.4053    254305.62     284.2435   0.15033986  0.017080537 
    9900    13305.652     85383.94   -71324.184   -754.10477    254414.23    284.36489 -0.0013373799  0.017080537 
   10000    13682.285    85515.075   -71072.288   -760.50208    254136.96    284.05498  -0.01625723  0.017080537 
Loop time of 40.2436 on 6144 procs for 10000 steps with 300146 atoms

Performance: 214.693 ns/day, 0.112 hours/ns, 248.487 timesteps/s
940.9% CPU use with 512 MPI tasks x 12 OpenMP threads

MPI task timing breakdown:
Section |  min time  |  avg time  |  max time  |%varavg| %total
---------------------------------------------------------------
Pair    | 10.524     | 20.844     | 29.436     |  84.6 | 51.79
Bond    | 0.39026    | 0.43177    | 0.46296    |   2.9 |  1.07
Neigh   | 3.345      | 3.4366     | 3.5422     |   2.1 |  8.54
Comm    | 3.6543     | 12.395     | 23.244     | 109.6 | 30.80
Output  | 0.011444   | 0.034122   | 0.0894     |   8.6 |  0.08
Modify  | 1.2805     | 2.857      | 6.4481     |  60.9 |  7.10
Other   |            | 0.2451     |            |       |  0.61

Nlocal:        586.223 ave         590 max         582 min
Histogram: 1 4 33 90 0 177 141 55 9 2
Nghost:        4462.57 ave        7447 max         606 min
Histogram: 2 2 17 71 122 121 70 21 60 26
Neighs:        38425.8 ave       55522 max       20242 min
Histogram: 14 28 41 68 81 107 68 52 45 8

Total # of neighbors = 19673995
Ave neighs/atom = 65.548083
Ave special neighs/atom = 1.9870130
Neighbor list builds = 500
Dangerous builds = 490

Please see the log.cite file for references relevant to this simulation

Total wall time: 0:00:42
