LAMMPS (29 Oct 2020)
  using 12 OpenMP thread(s) per MPI task
Reading data file ...
  orthogonal box = (-709.00000 -659.00000 -772.50000) to (709.00000 659.00000 772.50000)
  4 by 4 by 4 MPI processor grid
  reading atoms ...
  300146 atoms
  reading velocities ...
  300146 velocities
  scanning bonds ...
  1 = max bonds/atom
  reading bonds ...
  298197 bonds
Finding 1-2 1-3 1-4 neighbors ...
  special bond factors lj:    0.0      0.0      0.0     
  special bond factors coul:  0.0      0.0      0.0     
     2 = max # of 1-2 neighbors
     2 = max # of 1-3 neighbors
     4 = max # of 1-4 neighbors
     6 = max # of special neighbors
  special bonds CPU = 0.042 seconds
  read_data CPU = 2.188 seconds
Setting atom values ...
  9745 settings made for charge
Setting atom values ...
  1949 settings made for charge
Setting atom values ...
  5847 settings made for charge
Setting atom values ...
  3898 settings made for charge
Finding 1-2 1-3 1-4 neighbors ...
  special bond factors lj:    0.0      1.0      1.0     
  special bond factors coul:  0.0      1.0      1.0     
     2 = max # of 1-2 neighbors
     6 = max # of special neighbors
  special bonds CPU = 0.014 seconds
Neighbor list info ...
  update every 20 steps, delay 0 steps, check yes
  max neighbors/atom: 2000, page size: 100000
  master list distance cutoff = 38
  ghost atom cutoff = 38
  binsize = 11.5, bins = 124 115 135
  1 neighbor lists, perpetual/occasional/extra = 1 0 0
  (1) pair ljlambda, perpetual
      attributes: half, newton on
      pair build: half/multi/newton
      stencil: half/multi/3d/newton
      bin: standard
Setting up Verlet run ...
  Unit style    : real
  Current step  : 0
  Time step     : 10.0
Per MPI rank memory allocation (min/avg/max) = 19.72 | 24.44 | 68.01 Mbytes
Step PotEng E_bond E_vdwl E_coul KinEng Temp Press Density 
       0   -50472.541    3507.3266   -53235.227   -744.64087    268402.57          300    8.9798637  0.017080537 
     100   -18765.061    59187.739   -77201.251   -751.54836    237315.78    265.25354    0.8427507  0.017080537 
     200   -16477.718    61936.372   -77657.791   -756.29822    235841.01    263.60516   0.57904212  0.017080537 
     300   -13891.644    64326.227    -77459.25   -758.62199    233957.08    261.49945   0.16772169  0.017080537 
     400   -11321.714    66581.144   -77156.545   -746.31281    232080.27     259.4017 -0.0013703276  0.017080537 
     500   -9542.9367     68132.95   -76936.708   -739.17836    231093.81     258.2991   -0.1175509  0.017080537 
     600   -8071.2645    69218.988   -76544.294   -745.95802    230547.41    257.68838 -0.044616668  0.017080537 
     700   -6917.4049    70489.871   -76659.339   -747.93702    230275.35    257.38429  -0.14938917  0.017080537 
     800   -6017.0184    71225.076   -76490.045   -752.04855    230205.28    257.30597 -0.051002272  0.017080537 
     900   -4692.8109    72311.443   -76253.585   -750.66943    229720.44    256.76406  -0.11395366  0.017080537 
    1000   -4235.2105    72863.634   -76351.807   -747.03817    229998.16    257.07447 -0.020552151  0.017080537 
    1100   -3611.4066    73381.426   -76248.556   -744.27669    230222.03    257.32469  0.025124442  0.017080537 
    1200   -3263.6089    73958.638   -76473.015    -749.2322    230572.96    257.71693 -0.023112286  0.017080537 
    1300   -2110.7418    74868.125   -76238.382   -740.48503    230304.14    257.41647 -0.049732359  0.017080537 
    1400   -1684.2957    75318.068   -76255.546    -746.8169     230647.4    257.80014 -0.038067231  0.017080537 
    1500   -1743.1345     75342.17   -76338.378   -746.92696    231464.39     258.7133  0.010092379  0.017080537 
    1600   -967.05014    76186.582   -76398.975   -754.65698    231398.14    258.63926 -0.094707746  0.017080537 
    1700    -815.3616     76156.06   -76217.895   -753.52648     232036.7    259.35299 -0.039120155  0.017080537 
    1800    -441.0291      76532.8   -76214.973   -758.85602     232330.5    259.68138   0.04918388  0.017080537 
    1900   -183.21824    76803.394   -76223.217   -763.39543    232827.88    260.23731 -0.037498035  0.017080537 
    2000    180.32396    77100.342   -76155.669   -764.34966    233164.16    260.61318 -0.0083021643  0.017080537 
    2100     565.0471    77397.506   -76086.954   -745.50454    233406.45    260.88399 -0.0047661985  0.017080537 
    2200    868.43032    77720.043   -76096.754    -754.8585    233705.05    261.21775 -0.054502459  0.017080537 
    2300    858.56754    77757.172   -76146.486   -752.11824    234281.43    261.86198 -0.0034951997  0.017080537 
    2400     1174.356    77887.055   -75962.981   -749.71878    234682.51    262.31027  0.019962924  0.017080537 
    2500     1395.883    78208.624   -76064.575   -748.16541    235167.43    262.85228  0.017046497  0.017080537 
    2600    1590.7121     78307.67   -75966.265   -750.69288    235641.47    263.38213  0.031003054  0.017080537 
    2700    2043.1226     78809.74   -76018.757   -747.86088    235842.36    263.60667 -0.051424729  0.017080537 
    2800    2111.6942    78815.131   -75951.277   -752.15992    236315.67     264.1357   0.02234145  0.017080537 
    2900    2302.7729     79003.79   -75942.545    -758.4721    236742.26    264.61252 -0.033474167  0.017080537 
    3000    2303.5466    79021.387   -75961.405   -756.43597    237430.82    265.38213  0.028432987  0.017080537 
    3100    2391.2157    78971.172   -75833.844   -746.11235    237894.89    265.90083 -0.015584816  0.017080537 
    3200    3121.8621    79537.377   -75667.263   -748.25166     237832.2    265.83077 -0.052451603  0.017080537 
    3300    3001.8767    79377.126   -75625.764   -749.48459    238467.29    266.54062  0.026731778  0.017080537 
    3400    3334.5482    79584.204   -75501.526   -748.13022    238623.31    266.71501  0.029273855  0.017080537 
    3500    3626.4355    79692.906   -75322.147   -744.32342     239083.1    267.22893  0.017626853  0.017080537 
    3600    4044.0209    80175.772   -75390.383   -741.36806    239390.26    267.57224  -0.04527575  0.017080537 
    3700     4372.852    80336.973   -75217.764   -746.35693    239599.68    267.80632  0.019591311  0.017080537 
    3800    4581.2441    80409.977    -75083.68   -745.05302    240024.25    268.28087  0.038303651  0.017080537 
    3900    4387.0888    80267.849   -75123.109   -757.65141    240678.16    269.01177  0.052963895  0.017080537 
    4000    4998.2912    80856.241   -75093.186   -764.76445    240615.74      268.942  0.023363652  0.017080537 
    4100    4759.0167    80404.505   -74891.934   -753.55429    241179.79    269.57244  0.097797606  0.017080537 
    4200    4976.6577     80556.38   -74835.348   -744.37362    241411.45    269.83138  0.068144774  0.017080537 
    4300    5179.7601    80722.626   -74797.512   -745.35391    241713.71    270.16922    0.0343489  0.017080537 
    4400    5370.2383    80791.752   -74673.732   -747.78228     242012.5    270.50318 -0.023209095  0.017080537 
    4500    5639.3618    80985.029   -74603.166   -742.50082    242207.56     270.7212 -0.0094996346  0.017080537 
    4600    5751.8006    81081.688   -74577.422   -752.46574    242549.91    271.10386  0.025235899  0.017080537 
    4700    5977.2555    81046.412    -74311.72   -757.43695    242813.15    271.39809  0.055343758  0.017080537 
    4800    5910.9623    81197.533   -74531.312   -755.25833    243301.11    271.94349  0.043275929  0.017080537 
    4900    6176.0529    81413.771   -74484.942   -752.77575    243506.15    272.17268  -0.02471942  0.017080537 
    5000    6076.7614    81278.518   -74448.064   -753.69244    244107.41    272.84472  0.075250112  0.017080537 
    5100    6172.6171    81261.432   -74332.718   -756.09758    244525.93    273.31251  0.037277244  0.017080537 
    5200    6229.5658    81224.987   -74251.842   -743.57939    244972.51    273.81166  0.085191426  0.017080537 
    5300    6697.3058    81490.195   -74052.894   -739.99551    245012.61    273.85648   0.11086385  0.017080537 
    5400    7265.6398    82018.109   -74011.133   -741.33669    244977.18    273.81688  0.063484778  0.017080537 
    5500    7376.7096    82170.697   -74063.449   -730.53882    245292.96    274.16984  0.002809458  0.017080537 
    5600    7476.4887    82112.976    -73896.81   -739.67754    245651.58    274.57067 -0.0071476006  0.017080537 
    5700    7753.1325    82286.412   -73782.735   -750.54468    245806.09    274.74337  0.072160452  0.017080537 
    5800    7741.4384    82320.498   -73828.163   -750.89683    246187.58    275.16977  0.015156914  0.017080537 
    5900    8182.5973    82601.879   -73669.482   -749.79971    246213.17    275.19837  0.055602517  0.017080537 
    6000    8486.6868    82866.706   -73633.378   -746.64122    246358.71    275.36105 -0.071077697  0.017080537 
    6100    8456.7213    82797.902    -73596.73    -744.4505    246704.57    275.74762  0.057841988  0.017080537 
    6200    8692.3926    82977.121   -73538.205   -746.52376    247001.81    276.07985  0.006704122  0.017080537 
    6300    8483.6117    82825.101   -73594.879   -746.61007    247530.97    276.67131  0.020871977  0.017080537 
    6400    8972.3957    83185.617   -73466.749   -746.47177    247483.45     276.6182 0.0071762294  0.017080537 
    6500    9368.8046    83406.981   -73284.718   -753.45857    247616.86    276.76732  0.026100843  0.017080537 
    6600    9063.4428    83057.145   -73237.808   -755.89382    248227.38    277.44971   0.11513006  0.017080537 
    6700    9425.1782    83335.422    -73160.33   -749.91313    248227.14    277.44944  0.064152791  0.017080537 
    6800    9398.5393    83102.464   -72945.694   -758.22987     248698.5    277.97629  0.066823283  0.017080537 
    6900     9851.749    83470.783   -72863.241   -755.79273    248684.48    277.96062  0.058825939  0.017080537 
    7000    9718.3974    83202.401   -72732.142   -751.86128    249178.42     278.5127   0.10983957  0.017080537 
    7100    10182.161    83792.649   -72856.907   -753.58097    249245.77    278.58798  0.024596332  0.017080537 
    7200    10380.754    83821.165   -72680.746    -759.6641    249440.65    278.80581  0.027733399  0.017080537 
    7300    10421.981    83793.729   -72603.844   -767.90411    249766.99    279.17056  0.031101254  0.017080537 
    7400    10541.286    83973.631   -72665.633   -766.71118    250035.72    279.47093  0.043049709  0.017080537 
    7500    10946.071    84202.753   -72488.135   -768.54674    250063.83    279.50235 0.0048364999  0.017080537 
    7600    10690.897    84222.083   -72768.359    -762.8266    250600.64    280.10235  0.034296566  0.017080537 
    7700    10856.008    83877.475    -72262.57   -758.89769    250810.29    280.33668   0.10239941  0.017080537 
    7800    11168.806    84215.883   -72288.876   -758.20097    250866.05    280.39901  0.056505244  0.017080537 
    7900    11432.784    84622.572    -72437.21   -752.57724    250893.58    280.42978  -0.01637865  0.017080537 
    8000    11205.593    84322.101   -72356.583   -759.92563    251477.33    281.08226  0.068288089  0.017080537 
    8100    11789.494    84896.929   -72346.385   -761.05103     251319.6    280.90596 -0.027717361  0.017080537 
    8200    11572.187    84605.507   -72270.649   -762.67076    251833.62    281.48049  0.020467018  0.017080537 
    8300    12003.576    84858.257   -72096.818   -757.86347    251805.34    281.44888  0.066419173  0.017080537 
    8400    12062.427      85111.2    -72292.32   -756.45279    252101.54    281.77995  0.022684093  0.017080537 
    8500    12336.828     85025.62   -71921.459   -767.33234    252108.11    281.78729   0.11024152  0.017080537 
    8600    12145.198    84815.988   -71890.509   -780.28185     252649.7    282.39264  0.030283088  0.017080537 
    8700    12354.551    84895.337   -71772.155   -768.63095     252822.5    282.58579  0.073850184  0.017080537 
    8800    11964.243    84623.914   -71888.686   -770.98469    253466.86    283.30599  0.088795715  0.017080537 
    8900    12586.795    85095.307   -71742.664   -765.84774    253105.01    282.90155  0.051415329  0.017080537 
    9000    12764.203    85099.277   -71568.755   -766.32028    253202.82    283.01087  0.083265947  0.017080537 
    9100    12941.805    85249.837   -71536.366    -771.6662    253391.22    283.22146 -0.015263656  0.017080537 
    9200    12654.608    84832.692   -71405.853   -772.23128    253961.05    283.85837   0.08065702  0.017080537 
    9300    13033.297    85132.666   -71339.131   -760.23851    253786.28    283.66302  0.081774782  0.017080537 
    9400    12855.735    85102.038   -71475.902   -770.40088    254314.44    284.25336   0.10840616  0.017080537 
    9500    13359.205    85410.685   -71277.851    -773.6286    253987.05    283.88743   0.13237094  0.017080537 
    9600    13177.687    85475.066    -71528.06   -769.31967    254257.44    284.18965  0.049353162  0.017080537 
    9700     13580.66    85643.099   -71290.195   -772.24409    254213.99    284.14108 0.0040955986  0.017080537 
    9800    13610.293    85531.408    -71156.97   -764.14462    254444.84    284.39911 -0.0087448285  0.017080537 
    9900     13196.16    85077.732    -71113.34   -768.23133    255100.11    285.13152 0.0068809915  0.017080537 
   10000     13601.19    85205.485   -70832.046   -772.24892    254933.61    284.94542  0.075835925  0.017080537 
Loop time of 252.465 on 768 procs for 10000 steps with 300146 atoms

Performance: 34.223 ns/day, 0.701 hours/ns, 39.609 timesteps/s
433.2% CPU use with 64 MPI tasks x 12 OpenMP threads

MPI task timing breakdown:
Section |  min time  |  avg time  |  max time  |%varavg| %total
---------------------------------------------------------------
Pair    | 124.39     | 168.73     | 208.71     | 145.2 | 66.83
Bond    | 3.4541     | 3.6356     | 3.7615     |   3.9 |  1.44
Neigh   | 23.082     | 23.231     | 23.439     |   1.8 |  9.20
Comm    | 8.153      | 46.668     | 92.791     | 269.6 | 18.48
Output  | 0.011553   | 0.027512   | 0.15597    |  20.2 |  0.01
Modify  | 5.5213     | 7.0177     | 19.579     | 121.8 |  2.78
Other   |            | 3.154      |            |       |  1.25

Nlocal:        4689.78 ave        5072 max        4119 min
Histogram: 1 1 5 7 7 7 12 13 7 4
Nghost:        9365.48 ave       14477 max        5913 min
Histogram: 3 8 11 14 8 9 4 4 2 1
Neighs:       306902.0 ave      369965 max      225294 min
Histogram: 2 0 3 14 7 10 9 8 6 5

Total # of neighbors = 19641711
Ave neighs/atom = 65.440522
Ave special neighs/atom = 1.9870130
Neighbor list builds = 500
Dangerous builds = 490

Please see the log.cite file for references relevant to this simulation

Total wall time: 0:04:15
