LAMMPS (29 Oct 2020)
  using 12 OpenMP thread(s) per MPI task
Reading data file ...
  orthogonal box = (-709.00000 -659.00000 -772.50000) to (709.00000 659.00000 772.50000)
  4 by 4 by 4 MPI processor grid
  reading atoms ...
  300146 atoms
  reading velocities ...
  300146 velocities
  scanning bonds ...
  1 = max bonds/atom
  reading bonds ...
  298197 bonds
Finding 1-2 1-3 1-4 neighbors ...
  special bond factors lj:    0.0      0.0      0.0     
  special bond factors coul:  0.0      0.0      0.0     
     2 = max # of 1-2 neighbors
     2 = max # of 1-3 neighbors
     4 = max # of 1-4 neighbors
     6 = max # of special neighbors
  special bonds CPU = 0.041 seconds
  read_data CPU = 12.360 seconds
Setting atom values ...
  9745 settings made for charge
Setting atom values ...
  1949 settings made for charge
Setting atom values ...
  5847 settings made for charge
Setting atom values ...
  3898 settings made for charge
Finding 1-2 1-3 1-4 neighbors ...
  special bond factors lj:    0.0      1.0      1.0     
  special bond factors coul:  0.0      1.0      1.0     
     2 = max # of 1-2 neighbors
     6 = max # of special neighbors
  special bonds CPU = 0.015 seconds
Neighbor list info ...
  update every 20 steps, delay 0 steps, check yes
  max neighbors/atom: 2000, page size: 100000
  master list distance cutoff = 38
  ghost atom cutoff = 38
  binsize = 11.5, bins = 124 115 135
  1 neighbor lists, perpetual/occasional/extra = 1 0 0
  (1) pair ljlambda, perpetual
      attributes: half, newton on
      pair build: half/multi/newton
      stencil: half/multi/3d/newton
      bin: standard
Setting up Verlet run ...
  Unit style    : real
  Current step  : 0
  Time step     : 10.0
Per MPI rank memory allocation (min/avg/max) = 19.72 | 24.44 | 68.01 Mbytes
Step PotEng E_bond E_vdwl E_coul KinEng Temp Press Density 
       0   -50472.541    3507.3266   -53235.227   -744.64087    268402.57          300    8.9798637  0.017080537 
     100   -18765.061    59187.739   -77201.251   -751.54836    237315.78    265.25354    0.8427507  0.017080537 
     200   -16477.718    61936.372   -77657.791   -756.29822    235841.01    263.60516   0.57904212  0.017080537 
     300   -13891.644    64326.227    -77459.25   -758.62199    233957.08    261.49945   0.16772169  0.017080537 
     400   -11321.714    66581.144   -77156.545   -746.31281    232080.27     259.4017 -0.0013703276  0.017080537 
     500   -9542.9367     68132.95   -76936.708   -739.17836    231093.81     258.2991   -0.1175509  0.017080537 
     600   -8071.2645    69218.988   -76544.294   -745.95802    230547.41    257.68838 -0.044616668  0.017080537 
     700   -6917.4049    70489.871   -76659.339   -747.93702    230275.35    257.38429  -0.14938917  0.017080537 
     800   -6017.0184    71225.076   -76490.045   -752.04855    230205.28    257.30597 -0.051002272  0.017080537 
     900   -4692.8109    72311.443   -76253.585   -750.66943    229720.44    256.76406  -0.11395366  0.017080537 
    1000   -4235.2105    72863.634   -76351.807   -747.03817    229998.16    257.07447 -0.020552151  0.017080537 
    1100   -3611.4066    73381.426   -76248.556   -744.27669    230222.03    257.32469  0.025124442  0.017080537 
    1200   -3263.6089    73958.638   -76473.015    -749.2322    230572.96    257.71693 -0.023112286  0.017080537 
    1300   -2110.7418    74868.125   -76238.382   -740.48503    230304.14    257.41647 -0.049732359  0.017080537 
    1400   -1684.2957    75318.068   -76255.546    -746.8169     230647.4    257.80014 -0.038067231  0.017080537 
    1500   -1743.1345     75342.17   -76338.378   -746.92696    231464.39     258.7133  0.010092379  0.017080537 
    1600   -967.05014    76186.582   -76398.975   -754.65698    231398.14    258.63926 -0.094707746  0.017080537 
    1700    -815.3616     76156.06   -76217.895   -753.52648     232036.7    259.35299 -0.039120155  0.017080537 
    1800    -441.0291      76532.8   -76214.973   -758.85602     232330.5    259.68138   0.04918388  0.017080537 
    1900   -183.21824    76803.394   -76223.217   -763.39543    232827.88    260.23731 -0.037498035  0.017080537 
    2000    180.32396    77100.342   -76155.669   -764.34966    233164.16    260.61318 -0.0083021643  0.017080537 
    2100     565.0471    77397.506   -76086.954   -745.50454    233406.45    260.88399 -0.0047661984  0.017080537 
    2200    868.43032    77720.043   -76096.754    -754.8585    233705.05    261.21775 -0.054502459  0.017080537 
    2300    858.56754    77757.172   -76146.486   -752.11824    234281.43    261.86198 -0.0034951997  0.017080537 
    2400     1174.356    77887.055   -75962.981   -749.71878    234682.51    262.31027  0.019962925  0.017080537 
    2500     1395.883    78208.624   -76064.575   -748.16541    235167.43    262.85228  0.017046497  0.017080537 
    2600    1590.7121     78307.67   -75966.265   -750.69288    235641.47    263.38213  0.031003055  0.017080537 
    2700    2043.1226     78809.74   -76018.757   -747.86088    235842.36    263.60667 -0.051424728  0.017080537 
    2800    2111.6943    78815.131   -75951.277   -752.15992    236315.67     264.1357  0.022341447  0.017080537 
    2900    2302.7729     79003.79   -75942.545    -758.4721    236742.26    264.61252 -0.033474176  0.017080537 
    3000    2303.5467    79021.387   -75961.405   -756.43597    237430.82    265.38213  0.028432976  0.017080537 
    3100    2391.2159    78971.172   -75833.844   -746.11235    237894.89    265.90083 -0.015584826  0.017080537 
    3200    3121.8623    79537.377   -75667.263   -748.25166     237832.2    265.83077 -0.052451694  0.017080537 
    3300    3001.8779    79377.126   -75625.764   -749.48459    238467.29    266.54062  0.026731773  0.017080537 
    3400     3334.547    79584.202   -75501.525   -748.13021    238623.32    266.71501  0.029273737  0.017080537 
    3500    3626.4257    79692.899    -75322.15    -744.3234    239083.12    267.22894  0.017626971  0.017080537 
    3600    4040.8034    80173.165   -75390.993   -741.36914    239392.12    267.57432 -0.045814256  0.017080537 
    3700    4344.2957    80313.251   -75222.565   -746.39085    239651.27    267.86398  0.014839423  0.017080537 
    3800    4475.1322    80324.925   -75105.281   -744.51174    240096.63    268.36177  0.039015736  0.017080537 
    3900    4499.1878    80422.532   -75164.039   -759.30518    240595.68    268.91957   0.03340812  0.017080537 
    4000    4855.0432    80710.573   -75089.699   -765.83147    240803.02    269.15132 -0.015854585  0.017080537 
    4100    5137.3016    80839.374   -74944.508   -757.56468    241155.43    269.54521  0.051646114  0.017080537 
    4200    5309.3905    80957.507   -74892.883   -755.23382    241584.42    270.02471  0.049682922  0.017080537 
    4300    5567.7971    81383.971   -75068.137   -748.03747    241880.82    270.35601  0.023264643  0.017080537 
    4400     5638.526    81197.296    -74813.57   -745.20031    242505.29    271.05398  0.049177973  0.017080537 
    4500    6015.3246    81315.212   -74549.564   -750.32323    242598.77    271.15848  0.016669135  0.017080537 
    4600    6122.3742    81565.117   -74696.948   -745.79395    243053.83    271.66711 0.0079135608  0.017080537 
    4700     6489.383    81548.312   -74315.647   -743.28241    243240.11    271.87532  0.012183133  0.017080537 
    4800    6609.8447    81732.838   -74380.141   -742.85237    243522.92    272.19142 0.0064797771  0.017080537 
    4900    6749.1768     81806.71   -74312.296   -745.23695    243876.97    272.58715  0.050791217  0.017080537 
    5000     6875.226    82047.407   -74420.638     -751.543    244268.36    273.02461   0.07840341  0.017080537 
    5100    6696.5215    81919.652   -74468.184   -754.94623    245000.61    273.84307  0.058714999  0.017080537 
    5200     6806.308    81948.625    -74390.03   -752.28691    245379.83    274.26693  0.066948449  0.017080537 
    5300     7237.951    82194.921   -74201.108   -755.86192    245384.03    274.27163     0.127398  0.017080537 
    5400    7254.1249    82240.688   -74230.244   -756.31845    245839.38    274.78059  0.039270646  0.017080537 
    5500    7778.1169    82626.416   -74087.302   -760.99715    245688.19    274.61159 0.00059828154  0.017080537 
    5600    7618.9809     82363.19   -73978.235   -765.97357    246342.74    275.34319  0.042268495  0.017080537 
    5700    7717.6158    82423.039   -73933.615   -771.80735    246644.67    275.68067  0.058904195  0.017080537 
    5800    7857.3988    82721.534   -74101.663   -762.47286    246905.45    275.97215  0.090386589  0.017080537 
    5900    7893.0749    82676.077   -74024.556   -758.44573    247138.03    276.23212  0.085948766  0.017080537 
    6000    8047.6217    82713.705   -73919.941    -746.1419    247542.64    276.68436  0.084537999  0.017080537 
    6100    8536.7777    83303.317   -74019.499   -747.04087    247710.94    276.87246 -0.016856849  0.017080537 
    6200    8439.9596    83093.043   -73898.441   -754.64207    248120.12    277.32982  0.065602852  0.017080537 
    6300    9171.9632    83624.348   -73698.738   -753.64714    247834.54    277.01062  0.029962522  0.017080537 
    6400    9073.3992    83348.805   -73523.969   -751.43597    248422.96    277.66831  0.048553359  0.017080537 
    6500    9287.5796    83637.037    -73586.67   -762.78736    248641.36    277.91243  0.069745462  0.017080537 
    6600    9451.4001     83499.91   -73286.654    -761.8561    248857.03    278.15348   0.13612004  0.017080537 
    6700    9191.5304    83297.192   -73350.209   -755.45268    249553.68    278.93215  0.067192035  0.017080537 
    6800    9790.4063    83600.401   -73053.094   -756.90091    249307.59    278.65708  0.050577115  0.017080537 
    6900    10059.527    84114.854   -73308.257   -747.06963    249288.28    278.63549 -0.040458077  0.017080537 
    7000    10112.763    83984.145   -73119.184   -752.19783    249587.21    278.96962 -0.0012529415  0.017080537 
    7100    10636.414    84208.661   -72822.172   -750.07498    249623.65    279.01035   0.09426836  0.017080537 
    7200     10344.87    84127.716   -73029.386    -753.4598    250250.01    279.71045  0.021936243  0.017080537 
    7300    10384.808    83919.156   -72777.496   -756.85206    250593.25    280.09409   0.08859293  0.017080537 
    7400    10894.399    84484.283     -72823.9   -765.98333    250503.94    279.99427  0.057289748  0.017080537 
    7500    10549.962    84065.633   -72754.977   -760.69317    251144.01     280.7097  0.045317046  0.017080537 
    7600    11003.355    84615.382   -72857.245   -754.78167    251066.79    280.62338  0.016816082  0.017080537 
    7700    11105.897    84486.975   -72624.658   -756.42026    251388.27    280.98271  0.024096956  0.017080537 
    7800    11440.446    84675.899   -72476.474    -758.9787    251339.51     280.9282 -0.014539488  0.017080537 
    7900    11628.167    84979.675   -72591.808   -759.70082    251425.13    281.02391 -0.037553637  0.017080537 
    8000    11325.352    84499.043   -72400.727   -772.96395    252123.15     281.8041  0.070278235  0.017080537 
    8100    11711.538    84691.372   -72217.884   -761.95014     252139.2    281.82204  0.072077619  0.017080537 
    8200    12085.791    84904.745   -72052.233   -766.72101    252140.34    281.82331   0.16700684  0.017080537 
    8300     11904.63    84877.481   -72211.865   -760.98588    252652.99    282.39632  0.014831803  0.017080537 
    8400    12026.714    84879.524   -72082.133   -770.67647     252792.1     282.5518  0.049841174  0.017080537 
    8500    12684.898    85426.929   -71979.857   -762.17418    252440.56    282.15888   0.11158136  0.017080537 
    8600    12389.373    85045.741   -71889.776   -766.59222    253180.12     282.9855  0.072923799  0.017080537 
    8700    12667.158    85351.328   -71923.567   -760.60244    253133.49    282.93338 -0.0065927983  0.017080537 
    8800    12174.768     84850.02   -71910.597   -764.65482    253989.51    283.89017 -0.024792141  0.017080537 
    8900    13033.955    85528.496   -71737.721   -756.82031    253397.34    283.22829   0.01992953  0.017080537 
    9000    12917.387    85241.037   -71549.922   -773.72817    253935.62    283.82994  0.057608273  0.017080537 
    9100    13007.663    85348.883   -71573.752   -767.46767    254197.43    284.12258  0.079901009  0.017080537 
    9200    13175.653    85218.931   -71275.495   -767.78333    254252.65     284.1843   0.11384599  0.017080537 
    9300     13284.44    85247.013    -71200.36   -762.21365    254397.14     284.3458   0.12669914  0.017080537 
    9400    13355.638      85480.8   -71361.083   -764.07926    254564.56    284.53292  0.090107768  0.017080537 
    9500    13244.989    85408.499   -71403.316   -760.19388    254949.93    284.96366   0.06481396  0.017080537 
    9600    13944.383    85981.268   -71279.661   -757.22313    254521.88    284.48522 -0.012344157  0.017080537 
    9700    13867.759    85791.372   -71164.234   -759.37907    254943.26    284.95621  0.035875443  0.017080537 
    9800    13719.666    85532.259   -71052.919   -759.67357    255319.09    285.37628  0.081524428  0.017080537 
    9900     13999.89    85673.841   -70910.136   -763.81487    255305.38    285.36095  0.035383053  0.017080537 
   10000    14400.369    85924.488   -70767.199   -756.91953     255184.4    285.22574  0.057833979  0.017080537 
Loop time of 254.299 on 768 procs for 10000 steps with 300146 atoms

Performance: 33.976 ns/day, 0.706 hours/ns, 39.324 timesteps/s
430.8% CPU use with 64 MPI tasks x 12 OpenMP threads

MPI task timing breakdown:
Section |  min time  |  avg time  |  max time  |%varavg| %total
---------------------------------------------------------------
Pair    | 125.79     | 161.24     | 212.15     | 150.3 | 63.41
Bond    | 3.1693     | 3.4705     | 3.7647     |   9.0 |  1.36
Neigh   | 22.993     | 23.141     | 23.342     |   1.7 |  9.10
Comm    | 6.6541     | 55.923     | 93.358     | 260.3 | 21.99
Output  | 0.011447   | 0.033626   | 0.18943    |  25.3 |  0.01
Modify  | 5.4904     | 7.354      | 21.349     | 149.6 |  2.89
Other   |            | 3.133      |            |       |  1.23

Nlocal:        4689.78 ave        4995 max        4250 min
Histogram: 2 4 1 9 5 8 12 9 7 7
Nghost:        9387.34 ave       14033 max        5897 min
Histogram: 2 9 10 12 7 11 5 3 4 1
Neighs:       307063.0 ave      374305 max      241679 min
Histogram: 3 4 7 12 8 8 6 11 2 3

Total # of neighbors = 19652047
Ave neighs/atom = 65.474959
Ave special neighs/atom = 1.9870130
Neighbor list builds = 500
Dangerous builds = 490

Please see the log.cite file for references relevant to this simulation

Total wall time: 0:04:27
