LAMMPS (29 Oct 2020)
  using 12 OpenMP thread(s) per MPI task
Reading data file ...
  orthogonal box = (-709.00000 -659.00000 -772.50000) to (709.00000 659.00000 772.50000)
  4 by 4 by 4 MPI processor grid
  reading atoms ...
  300146 atoms
  reading velocities ...
  300146 velocities
  scanning bonds ...
  1 = max bonds/atom
  reading bonds ...
  298197 bonds
Finding 1-2 1-3 1-4 neighbors ...
  special bond factors lj:    0.0      0.0      0.0     
  special bond factors coul:  0.0      0.0      0.0     
     2 = max # of 1-2 neighbors
     2 = max # of 1-3 neighbors
     4 = max # of 1-4 neighbors
     6 = max # of special neighbors
  special bonds CPU = 0.044 seconds
  read_data CPU = 2.178 seconds
Setting atom values ...
  9745 settings made for charge
Setting atom values ...
  1949 settings made for charge
Setting atom values ...
  5847 settings made for charge
Setting atom values ...
  3898 settings made for charge
Finding 1-2 1-3 1-4 neighbors ...
  special bond factors lj:    0.0      1.0      1.0     
  special bond factors coul:  0.0      1.0      1.0     
     2 = max # of 1-2 neighbors
     6 = max # of special neighbors
  special bonds CPU = 0.015 seconds
Neighbor list info ...
  update every 20 steps, delay 0 steps, check yes
  max neighbors/atom: 2000, page size: 100000
  master list distance cutoff = 38
  ghost atom cutoff = 38
  binsize = 11.5, bins = 124 115 135
  1 neighbor lists, perpetual/occasional/extra = 1 0 0
  (1) pair ljlambda, perpetual
      attributes: half, newton on
      pair build: half/multi/newton
      stencil: half/multi/3d/newton
      bin: standard
Setting up Verlet run ...
  Unit style    : real
  Current step  : 0
  Time step     : 10.0
Per MPI rank memory allocation (min/avg/max) = 19.72 | 24.44 | 68.01 Mbytes
Step PotEng E_bond E_vdwl E_coul KinEng Temp Press Density 
       0   -50472.541    3507.3266   -53235.227   -744.64087    268402.57          300    8.9798637  0.017080537 
     100   -18765.061    59187.739   -77201.251   -751.54836    237315.78    265.25354    0.8427507  0.017080537 
     200   -16477.718    61936.372   -77657.791   -756.29822    235841.01    263.60516   0.57904212  0.017080537 
     300   -13891.644    64326.227    -77459.25   -758.62199    233957.08    261.49945   0.16772169  0.017080537 
     400   -11321.714    66581.144   -77156.545   -746.31281    232080.27     259.4017 -0.0013703276  0.017080537 
     500   -9542.9367     68132.95   -76936.708   -739.17836    231093.81     258.2991   -0.1175509  0.017080537 
     600   -8071.2645    69218.988   -76544.294   -745.95802    230547.41    257.68838 -0.044616668  0.017080537 
     700   -6917.4049    70489.871   -76659.339   -747.93702    230275.35    257.38429  -0.14938917  0.017080537 
     800   -6017.0184    71225.076   -76490.045   -752.04855    230205.28    257.30597 -0.051002272  0.017080537 
     900   -4692.8109    72311.443   -76253.585   -750.66943    229720.44    256.76406  -0.11395366  0.017080537 
    1000   -4235.2105    72863.634   -76351.807   -747.03817    229998.16    257.07447 -0.020552151  0.017080537 
    1100   -3611.4066    73381.426   -76248.556   -744.27669    230222.03    257.32469  0.025124442  0.017080537 
    1200   -3263.6089    73958.638   -76473.015    -749.2322    230572.96    257.71693 -0.023112286  0.017080537 
    1300   -2110.7418    74868.125   -76238.382   -740.48503    230304.14    257.41647 -0.049732359  0.017080537 
    1400   -1684.2957    75318.068   -76255.546    -746.8169     230647.4    257.80014 -0.038067231  0.017080537 
    1500   -1743.1345     75342.17   -76338.378   -746.92696    231464.39     258.7133  0.010092379  0.017080537 
    1600   -967.05014    76186.582   -76398.975   -754.65698    231398.14    258.63926 -0.094707746  0.017080537 
    1700    -815.3616     76156.06   -76217.895   -753.52648     232036.7    259.35299 -0.039120155  0.017080537 
    1800    -441.0291      76532.8   -76214.973   -758.85602     232330.5    259.68138   0.04918388  0.017080537 
    1900   -183.21824    76803.394   -76223.217   -763.39543    232827.88    260.23731 -0.037498035  0.017080537 
    2000    180.32396    77100.342   -76155.669   -764.34966    233164.16    260.61318 -0.0083021643  0.017080537 
    2100     565.0471    77397.506   -76086.954   -745.50454    233406.45    260.88399 -0.0047661984  0.017080537 
    2200    868.43032    77720.043   -76096.754    -754.8585    233705.05    261.21775 -0.054502459  0.017080537 
    2300    858.56754    77757.172   -76146.486   -752.11824    234281.43    261.86198 -0.0034951997  0.017080537 
    2400     1174.356    77887.055   -75962.981   -749.71878    234682.51    262.31027  0.019962924  0.017080537 
    2500     1395.883    78208.624   -76064.575   -748.16541    235167.43    262.85228  0.017046496  0.017080537 
    2600    1590.7121     78307.67   -75966.265   -750.69288    235641.47    263.38213  0.031003053  0.017080537 
    2700    2043.1226     78809.74   -76018.757   -747.86088    235842.36    263.60667  -0.05142472  0.017080537 
    2800    2111.6943    78815.131   -75951.277   -752.15992    236315.67     264.1357  0.022341443  0.017080537 
    2900    2302.7728     79003.79   -75942.545    -758.4721    236742.26    264.61252 -0.033474156  0.017080537 
    3000    2303.5465    79021.387   -75961.405   -756.43597    237430.82    265.38213  0.028432978  0.017080537 
    3100    2391.2153    78971.172   -75833.844   -746.11235    237894.89    265.90083 -0.015584767  0.017080537 
    3200    3121.8627    79537.379   -75667.264   -748.25167     237832.2    265.83077   -0.0524515  0.017080537 
    3300    3001.8733    79377.124   -75625.766   -749.48459    238467.29    266.54062  0.026731297  0.017080537 
    3400    3334.5411      79584.2   -75501.529   -748.13021    238623.32    266.71502  0.029274019  0.017080537 
    3500    3626.4212    79692.898   -75322.152   -744.32482    239083.12    267.22895  0.017625411  0.017080537 
    3600    4061.2662    80189.766   -75387.251   -741.24842    239416.21    267.60125 -0.046027556  0.017080537 
    3700    4371.1637    80366.012   -75247.171   -747.67744    239655.29    267.86848  0.011949675  0.017080537 
    3800    4377.5821    80319.033   -75196.439   -745.01145     240143.7    268.41439  0.027861557  0.017080537 
    3900    4429.6924    80324.712   -75137.212   -757.80764    240731.89    269.07182  0.059520731  0.017080537 
    4000    4874.1603    80723.898   -75088.851   -760.88604    240864.22    269.21973 -0.032091352  0.017080537 
    4100    4670.1891    80449.422   -75029.779   -749.45399     241624.1    270.06906 -0.013027466  0.017080537 
    4200    5077.4569    80821.025   -74986.288   -757.28047    241793.48    270.25838  0.046377123  0.017080537 
    4300    5120.9803    80713.627   -74835.665   -756.98213    242320.54    270.84749   0.10359041  0.017080537 
    4400    5671.6583    80980.229   -74562.583   -745.98795    242365.02     270.8972  0.082129763  0.017080537 
    4500    5710.5581    81257.286   -74799.576   -747.15268    242876.09    271.46844  0.046372311  0.017080537 
    4600    6245.2821    81646.811   -74649.702   -751.82705    242845.72     271.4345 -0.004233967  0.017080537 
    4700    5994.4935    81279.565   -74527.782   -757.28966    243683.77    272.37121   0.09643176  0.017080537 
    4800    6559.3171     81792.48   -74484.273   -748.89051    243624.38    272.30482  0.094272496  0.017080537 
    4900    6217.7255    81305.086   -74332.939   -754.42137    244520.24    273.30615   0.12732726  0.017080537 
    5000    6920.9767    81887.922   -74200.123   -766.82173    244291.78     273.0508  0.048581178  0.017080537 
    5100    7136.2119    81983.315    -74083.27   -763.83261    244526.95    273.31364  0.055487809  0.017080537 
    5200    6749.7939    81817.817   -74310.733   -757.29077    245276.78    274.15175  0.034779978  0.017080537 
    5300    7251.1983    82120.045   -74111.515   -757.33186    245215.22    274.08294  0.020365401  0.017080537 
    5400     7622.424    82307.996   -73921.109   -764.46299    245233.59    274.10347  0.044325809  0.017080537 
    5500    7683.8993    82432.069   -73988.314   -759.85513    245593.03    274.50523 0.0036175102  0.017080537 
    5600    7746.9669    82397.508   -73896.526   -754.01538    245922.98    274.87402 0.00066706072  0.017080537 
    5700    7943.6231    82383.194   -73691.535   -748.03596     246041.8    275.00683  0.014520755  0.017080537 
    5800    8184.5319    82721.386   -73790.913   -745.94133    246242.88    275.23158 -0.019666496  0.017080537 
    5900     8056.951    82424.301    -73615.13   -752.21987    246747.61    275.79573  0.038616135  0.017080537 
    6000    8282.5074    82648.611    -73615.22   -750.88284    247091.98    276.18064  0.043003003  0.017080537 
    6100    8339.0989    82751.267   -73659.302   -752.86591    247491.34    276.62702  0.018400316  0.017080537 
    6200    8812.7052    82917.906   -73352.501   -752.70036    247575.26    276.72081  0.075418171  0.017080537 
    6300    8746.7053    82787.809   -73284.219   -756.88483    248090.45    277.29666  0.079944106  0.017080537 
    6400    9242.7089    83277.544   -73284.158   -750.67623    247966.33    277.15793  0.036586567  0.017080537 
    6500    9496.5391    83505.225   -73255.011   -753.67477    247996.94    277.19213  0.044857898  0.017080537 
    6600    9235.6527    82948.757   -72960.769   -752.33529    248532.43    277.79067  0.085010761  0.017080537 
    6700    9441.9962    83316.607   -73127.662   -746.94923    248747.29    278.03082 -0.014926412  0.017080537 
    6800    9597.7177     83409.37   -73065.014   -746.63915    248890.89    278.19132  0.070717083  0.017080537 
    6900    9820.6557    83633.878   -73046.277   -766.94589    249160.74    278.49295   0.01422167  0.017080537 
    7000    10002.638    83584.682   -72821.609   -760.43445     249510.7    278.88411   0.11785797  0.017080537 
    7100    10066.609     83722.21   -72892.455   -763.14566    249844.49    279.25719  0.059798813  0.017080537 
    7200    10345.455    83939.738   -72826.757   -767.52609    250083.26    279.52407  0.054957457  0.017080537 
    7300    10417.219    83795.345   -72627.905   -750.22133    250345.94    279.81767   0.10394407  0.017080537 
    7400    11079.532    84322.923   -72481.851   -761.53984    250034.04    279.46905  0.037399035  0.017080537 
    7500    10719.158     83913.55   -72438.382   -756.01019       250782    280.30506  0.028664688  0.017080537 
    7600    11124.886    84014.026   -72122.294   -766.84583    250718.09    280.23363   0.10277365  0.017080537 
    7700    11014.164    83946.197   -72180.899   -751.13315    251113.55    280.67564  0.036186861  0.017080537 
    7800    11224.721      84063.9   -72085.535   -753.64361    251281.11    280.86293  0.073530111  0.017080537 
    7900    11401.134    84407.126   -72254.285   -751.70733     251297.8    280.88158  0.034272339  0.017080537 
    8000    11556.399    84374.126   -72053.261   -764.46595     251472.6    281.07697  0.064675841  0.017080537 
    8100    11760.951    84547.002   -72023.863   -762.18786     251546.8     281.1599   0.11223602  0.017080537 
    8200    11450.715     84077.78   -71864.132   -762.93244    252177.02    281.86431   0.13104488  0.017080537 
    8300    12029.618     84758.86   -71956.933   -772.30892    251971.39    281.63448   0.05873729  0.017080537 
    8400      12143.9    84670.588   -71763.155   -763.53304    252107.17    281.78624  0.042847764  0.017080537 
    8500    12436.388    84855.061   -71646.562    -772.1107    252170.02    281.85649  0.058819648  0.017080537 
    8600    11998.271    84418.437    -71639.34   -780.82563    252905.34    282.67838  0.031506979  0.017080537 
    8700    12295.074    84734.406   -71672.658   -766.67404    252775.49    282.53324  0.061989407  0.017080537 
    8800    12395.201    84888.172   -71727.661   -765.30983    252933.51    282.70986  -0.02664213  0.017080537 
    8900    12382.499    84611.214   -71459.079   -769.63616    253243.37     283.0562   0.12564128  0.017080537 
    9000    13046.063    85215.223   -71408.524    -760.6348     252912.1    282.68593 0.0010827673  0.017080537 
    9100    12765.188    84880.898   -71364.485   -751.22473    253461.21    283.29968  0.056736191  0.017080537 
    9200    13355.692    85163.138    -71061.38   -746.06709    253158.63    282.96148  0.046323944  0.017080537 
    9300    13139.665    85181.866   -71272.329   -769.87219    253662.13    283.52425 -0.024425726  0.017080537 
    9400    12947.172    84867.866   -71166.289   -754.40548    254214.44    284.14159  0.095056263  0.017080537 
    9500    13258.018    85179.982   -71163.593   -758.37047    254196.43    284.12146  0.037550126  0.017080537 
    9600    14023.331    85402.908   -70614.404   -765.17343    253884.03    283.77228  0.040571911  0.017080537 
    9700    13729.539    85260.692   -70763.221   -767.93214     254479.6    284.43796  0.016240717  0.017080537 
    9800    13890.622    85346.568   -70690.995   -764.95123    254632.48    284.60884  0.030158354  0.017080537 
    9900    14385.571    85746.458   -70590.516   -770.37083    254437.09    284.39045  0.001199053  0.017080537 
   10000    14205.887    85443.773   -70468.845   -769.04025    254808.89    284.80602  0.037218412  0.017080537 
Loop time of 254.831 on 768 procs for 10000 steps with 300146 atoms

Performance: 33.905 ns/day, 0.708 hours/ns, 39.242 timesteps/s
430.0% CPU use with 64 MPI tasks x 12 OpenMP threads

MPI task timing breakdown:
Section |  min time  |  avg time  |  max time  |%varavg| %total
---------------------------------------------------------------
Pair    | 122.79     | 168.57     | 212.57     | 144.8 | 66.15
Bond    | 3.4382     | 3.6375     | 3.7654     |   3.9 |  1.43
Neigh   | 23.008     | 23.172     | 23.389     |   1.9 |  9.09
Comm    | 6.7786     | 48.967     | 96.926     | 264.4 | 19.22
Output  | 0.011966   | 0.031894   | 0.19117    |  25.2 |  0.01
Modify  | 5.4645     | 7.2963     | 21.918     | 148.1 |  2.86
Other   |            | 3.156      |            |       |  1.24

Nlocal:        4689.78 ave        5081 max        4231 min
Histogram: 3 5 2 9 10 6 9 12 4 4
Nghost:        9404.48 ave       14285 max        6011 min
Histogram: 4 9 10 9 9 11 4 4 3 1
Neighs:       305964.0 ave      366508 max      228577 min
Histogram: 1 2 4 10 11 6 10 7 9 4

Total # of neighbors = 19581665
Ave neighs/atom = 65.240466
Ave special neighs/atom = 1.9870130
Neighbor list builds = 500
Dangerous builds = 490

Please see the log.cite file for references relevant to this simulation

Total wall time: 0:04:17
