LAMMPS (29 Oct 2020)
  using 12 OpenMP thread(s) per MPI task
Reading data file ...
  orthogonal box = (-709.00000 -659.00000 -772.50000) to (709.00000 659.00000 772.50000)
  16 by 16 by 32 MPI processor grid
  reading atoms ...
  300146 atoms
  reading velocities ...
  300146 velocities
  scanning bonds ...
  1 = max bonds/atom
  reading bonds ...
  298197 bonds
Finding 1-2 1-3 1-4 neighbors ...
  special bond factors lj:    0.0      0.0      0.0     
  special bond factors coul:  0.0      0.0      0.0     
     2 = max # of 1-2 neighbors
     2 = max # of 1-3 neighbors
     4 = max # of 1-4 neighbors
     6 = max # of special neighbors
  special bonds CPU = 0.295 seconds
  read_data CPU = 3.627 seconds
Setting atom values ...
  9745 settings made for charge
Setting atom values ...
  1949 settings made for charge
Setting atom values ...
  5847 settings made for charge
Setting atom values ...
  3898 settings made for charge
Finding 1-2 1-3 1-4 neighbors ...
  special bond factors lj:    0.0      1.0      1.0     
  special bond factors coul:  0.0      1.0      1.0     
     2 = max # of 1-2 neighbors
     6 = max # of special neighbors
  special bonds CPU = 0.093 seconds
Neighbor list info ...
  update every 20 steps, delay 0 steps, check yes
  max neighbors/atom: 2000, page size: 100000
  master list distance cutoff = 38
  ghost atom cutoff = 38
  binsize = 11.5, bins = 124 115 135
  1 neighbor lists, perpetual/occasional/extra = 1 0 0
  (1) pair ljlambda, perpetual
      attributes: half, newton on
      pair build: half/multi/newton
      stencil: half/multi/3d/newton
      bin: standard
Setting up Verlet run ...
  Unit style    : real
  Current step  : 0
  Time step     : 10.0
Per MPI rank memory allocation (min/avg/max) = 17.44 | 17.52 | 18.02 Mbytes
Step PotEng E_bond E_vdwl E_coul KinEng Temp Press Density 
       0   -50472.541    3507.3266   -53235.227   -744.64087    268402.57          300    8.9798637  0.017080537 
     100   -18712.831    59226.112   -77187.447   -751.49525    237236.16    265.16455   0.84205024  0.017080537 
     200   -16530.215      61898.3   -77671.772   -756.74359    235822.77    263.58478   0.58698993  0.017080537 
     300   -13784.615    64486.994   -77509.828    -761.7822    233785.86    261.30808   0.17370556  0.017080537 
     400   -11296.657    66561.743   -77112.901   -745.49921    231978.28     259.2877 -0.042311031  0.017080537 
     500   -9586.7599    68092.465   -76932.429   -746.79578     231006.8    258.20185 -0.089488892  0.017080537 
     600   -8152.5351    69440.119   -76853.028   -739.62655    230348.86    257.46646  -0.14584544  0.017080537 
     700   -6981.3587    70305.805   -76545.036   -742.12774    230042.85    257.12442 -0.016071283  0.017080537 
     800   -5822.6996    71501.445   -76588.523   -735.62168     229692.1    256.73238 -0.092801859  0.017080537 
     900    -4738.926    72320.445   -76315.727   -743.64442    229411.17    256.41837 -0.025219816  0.017080537 
    1000   -4174.0317    72889.364   -76321.261   -742.13409     229757.2    256.80514 -0.069866511  0.017080537 
    1100   -3699.6576    73326.208   -76284.537   -741.32894     230038.3    257.11933  0.059898795  0.017080537 
    1200   -3006.9768    74126.706   -76392.269   -741.41375    230262.73    257.37019 -0.0039819649  0.017080537 
    1300   -2465.3465    74675.294   -76403.686   -736.95477    230578.96    257.72364  0.015165622  0.017080537 
    1400   -1933.7787    75138.715   -76323.709   -748.78433    230743.53    257.90759 0.0023392104  0.017080537 
    1500   -1330.5023    75843.467   -76422.035   -751.93352    230894.66    258.07651 -0.086021344  0.017080537 
    1600   -1250.8133    75945.996   -76446.056     -750.753    231643.15    258.91312  0.018071024  0.017080537 
    1700   -840.16294    76362.868   -76459.808   -743.22259    232011.53    259.32486  -0.09850864  0.017080537 
    1800     -213.094    76778.572   -76238.852   -752.81361    232105.66    259.43007  0.024075273  0.017080537 
    1900   -13.789393     76900.83    -76163.12   -751.49998     232589.2    259.97054 -0.013862502  0.017080537 
    2000    271.14289    77189.177   -76171.877   -746.15685    233058.18    260.49472 -0.095728246  0.017080537 
    2100    555.16182    77340.289    -76047.93   -737.19684    233382.57    260.85731   0.01208452  0.017080537 
    2200    834.16393    77676.443   -76091.414    -750.8645    233766.45    261.28638 -0.038297707  0.017080537 
    2300    997.65751    77806.529     -76061.3   -747.57187    234358.79    261.94845 -0.020297141  0.017080537 
    2400    1091.9484    77953.063   -76121.245      -739.87    234878.67    262.52954 0.0091257354  0.017080537 
    2500    1390.0125    78310.013   -76180.058   -739.94254    235077.54    262.75182  0.017301451  0.017080537 
    2600    2030.0399    78915.086   -76142.208    -742.8378    235154.93    262.83831 0.0011586698  0.017080537 
    2700    2058.6854    78772.473   -75963.896   -749.89185    235711.18    263.46005 -0.0048404823  0.017080537 
    2800     2129.049    78722.552   -75839.484   -754.01914    236246.62    264.05852 -0.045084393  0.017080537 
    2900    2600.4938    79040.234    -75687.44   -752.30065    236277.97    264.09356  0.007631527  0.017080537 
    3000    2451.1189    78973.642   -75778.712   -743.81076    237053.87    264.96081 0.0045492839  0.017080537 
    3100    2849.3051    79054.838   -75461.208   -744.32493    237305.95    265.24256 0.0082647448  0.017080537 
    3200    2932.2318    79262.582   -75587.393   -742.95706    237916.16    265.92461 -0.042596165  0.017080537 
    3300    3420.0881    79501.193   -75341.193   -739.91222    238102.75    266.13317  -0.06061706  0.017080537 
    3400    3783.5649    79893.678    -75363.88   -746.23376    238366.18    266.42761 0.0093150209  0.017080537 
    3500    3855.0937    79984.226   -75379.341   -749.79184    238837.61    266.95453 0.0052849594  0.017080537 
    3600    4020.2656    80102.219   -75327.755   -754.19788    239265.96    267.43331  0.038902287  0.017080537 
    3700    4117.8026     80220.48   -75351.807   -750.86975    239772.57    267.99956  0.059464008  0.017080537 
    3800    4698.0711    80592.563   -75147.541   -746.95146    239849.74    268.08582  0.024796391  0.017080537 
    3900    4562.2567    80592.867   -75279.866   -750.74413    240586.35    268.90914 -0.033437517  0.017080537 
    4000    4945.9159    80747.925   -75051.014   -750.99577    240726.04    269.06528  0.042497768  0.017080537 
    4100    4928.4671    80722.499   -75054.333   -739.69893    241283.82    269.68872  0.050291335  0.017080537 
    4200    5374.1883    81183.382   -75064.949   -744.24443    241293.62    269.69968  0.016773729  0.017080537 
    4300    5241.4662    81025.907   -75039.086   -745.35487    241875.31    270.34984  0.018842779  0.017080537 
    4400    5428.4887    80963.537   -74782.185   -752.86375    242164.54    270.67312   0.10568237  0.017080537 
    4500    5616.1823    81044.127    -74679.53   -748.41463     242644.5    271.20958  0.092240557  0.017080537 
    4600    5952.7219    81493.197    -74794.37   -746.10521    242742.83    271.31949 -0.0049200414  0.017080537 
    4700    6344.9245     81749.71    -74657.08   -747.70575    242764.54    271.34376  0.082727217  0.017080537 
    4800    6145.0126    81659.954   -74763.631   -751.31027    243449.12    272.10893 -0.0045541067  0.017080537 
    4900    6249.9199     81658.94   -74650.937   -758.08277    243733.75    272.42707 -0.011198228  0.017080537 
    5000    6839.7131    81814.953    -74224.49   -750.74966     243647.3    272.33045  0.089564017  0.017080537 
    5100    6553.0605    81683.025   -74382.689   -747.27606    244401.51    273.17344  0.086876139  0.017080537 
    5200    7001.1038    82307.297   -74559.725   -746.46809    244515.24    273.30056  0.040737433  0.017080537 
    5300    7200.8024    82349.292   -74395.042   -753.44814       244628     273.4266  0.040310654  0.017080537 
    5400    7153.3151    82232.099   -74323.328   -755.45652    245130.16    273.98787  0.094186979  0.017080537 
    5500    7462.5597    82377.174   -74154.049   -760.56541    245370.26    274.25623   0.11280213  0.017080537 
    5600    7548.8852    82449.713   -74145.108   -755.72011    245705.91    274.63139  -0.03613969  0.017080537 
    5700    7536.7108    82476.708   -74184.847   -755.15023    246157.49    275.13614 -0.015709999  0.017080537 
    5800    7683.7939    82243.129   -73799.276   -760.05972    246462.36     275.4769  0.069324468  0.017080537 
    5900    8215.4296    82723.094   -73752.167   -755.49683    246406.55    275.41453 -0.032612242  0.017080537 
    6000    8291.8243    82725.487   -73674.007   -759.65488     246764.6    275.81472 0.0028494185  0.017080537 
    6100    8208.1624     82562.73   -73601.971   -752.59687    247221.52    276.32543  0.094559685  0.017080537 
    6200    8300.9923    82861.272   -73803.762    -756.5173    247620.32    276.77118 0.0060124441  0.017080537 
    6300    8632.4824     82805.89     -73418.7   -754.70785    247800.92    276.97304  0.076334174  0.017080537 
    6400    8866.0154    83076.516   -73462.767   -747.73383    247979.97    277.17317  0.064695346  0.017080537 
    6500    9165.5304    83229.923   -73318.443   -745.94934     247997.5    277.19277  0.021857528  0.017080537 
    6600    9058.2572    83303.734   -73496.867   -748.60936    248526.14    277.78364  0.046829563  0.017080537 
    6700    9416.8635    83407.648   -73247.764   -743.02015    248481.92    277.73421  0.072561102  0.017080537 
    6800     9717.718    83416.608   -72956.861   -742.02916    248568.72    277.83122  0.060766055  0.017080537 
    6900    9746.6504    83614.718   -73118.608   -749.45989       248919    278.22275   0.04503693  0.017080537 
    7000    9899.3903    83508.168   -72864.021   -744.75631    249123.82    278.45168  0.027605059  0.017080537 
    7100    10011.274    83596.682   -72833.806   -751.60135    249309.66    278.65939  0.026787869  0.017080537 
    7200     10573.74    84162.013   -72832.768   -755.50501    249103.96    278.42949 0.0085008697  0.017080537 
    7300    9961.9438    83527.451   -72816.097   -749.41035    250086.07    279.52721 -0.010526615  0.017080537 
    7400    9908.3974    83444.859   -72786.121   -750.34063    250430.44    279.91212   0.10192622  0.017080537 
    7500    10534.408    83669.432   -72386.695   -748.32931     250202.8    279.65768   0.07500511  0.017080537 
    7600    10560.865    84067.309   -72758.166   -748.27687    250409.88    279.88914 -0.0056606485  0.017080537 
    7700      10859.2    84072.705   -72465.475   -748.03044    250497.13    279.98666   0.12154821  0.017080537 
    7800    10836.692     84107.01   -72522.318    -747.9998    250795.93    280.32064  0.061825609  0.017080537 
    7900    11128.148    84156.817   -72280.978   -747.69032    250819.07     280.3465  0.065322049  0.017080537 
    8000    10801.198    84150.176   -72598.006   -750.97273     251565.6    281.18091  0.039679989  0.017080537 
    8100    11303.255    84224.648   -72171.419   -749.97479    251413.66    281.01108  0.079682712  0.017080537 
    8200    11176.151    84193.234   -72270.527   -746.55578    251780.75    281.42139 -0.0054716035  0.017080537 
    8300    11711.282    84544.634   -72086.287     -747.065    251680.67    281.30953    0.0930682  0.017080537 
    8400    11540.425    84296.175    -72001.76   -753.99038    252210.92    281.90221  0.059535435  0.017080537 
    8500    11800.458    84676.399    -72115.31   -760.63084    252211.05    281.90235  0.078819337  0.017080537 
    8600    11966.999    84730.255   -71995.099   -768.15751    252340.27    282.04678  0.057234567  0.017080537 
    8700    11900.544    84777.232    -72120.07   -756.61812    252686.09    282.43331 0.0022931354  0.017080537 
    8800    12080.184    84805.889   -71957.624   -768.08139    252792.67    282.55244  0.001402248  0.017080537 
    8900    12477.621    84964.887   -71724.707   -762.55881    252565.59    282.29863  0.033323496  0.017080537 
    9000    12259.718    84822.197   -71803.955   -758.52355    253005.27    282.79006   0.05900948  0.017080537 
    9100    12490.679     85122.83   -71866.448   -765.70298    253069.81    282.86221  0.065496355  0.017080537 
    9200    12352.944    84882.928   -71765.413   -764.57127     253412.2     283.2449   0.07765204  0.017080537 
    9300    12756.843    85046.629   -71530.659   -759.12761    253277.83    283.09471 -0.010616313  0.017080537 
    9400    13000.961    85204.623   -71437.046   -766.61653    253272.15    283.08836  0.098875527  0.017080537 
    9500     13077.36    85340.103   -71506.176   -756.56716    253398.01    283.22905  0.041339935  0.017080537 
    9600    13209.752    85294.629    -71314.55   -770.32675    253649.77    283.51044   0.09758002  0.017080537 
    9700    13162.984    85277.036   -71348.119    -765.9333    253997.03    283.89858   0.11556159  0.017080537 
    9800    13514.735    85292.996    -71019.27   -758.99125       253852    283.73648  0.038219782  0.017080537 
    9900    13379.398    85151.773   -71010.761   -761.61419     254226.4    284.15496  0.053514621  0.017080537 
   10000    13645.049    85445.435   -71044.605   -755.78114    254291.99    284.22826  0.061751355  0.017080537 
Loop time of 19.9309 on 98304 procs for 10000 steps with 300146 atoms

Performance: 433.497 ns/day, 0.055 hours/ns, 501.733 timesteps/s
939.0% CPU use with 8192 MPI tasks x 12 OpenMP threads

MPI task timing breakdown:
Section |  min time  |  avg time  |  max time  |%varavg| %total
---------------------------------------------------------------
Pair    | 0.2814     | 1.3603     | 2.1312     |  28.4 |  6.82
Bond    | 0.022749   | 0.029099   | 0.035869   |   1.0 |  0.15
Neigh   | 0.22913    | 0.70866    | 0.97649    |  14.5 |  3.56
Comm    | 6.0982     | 9.2373     | 17.308     |  57.6 | 46.35
Output  | 0.013271   | 0.056189   | 0.076819   |   1.9 |  0.28
Modify  | 1.0732     | 8.2267     | 10.866     |  55.1 | 41.28
Other   |            | 0.3127     |            |       |  1.57

Nlocal:        36.6389 ave          41 max          32 min
Histogram: 1 29 222 1089 2352 2694 1330 400 71 4
Nghost:        2104.40 ave        3850 max         227 min
Histogram: 62 244 823 1317 1281 1349 1438 1381 288 9
Neighs:        2401.99 ave        4137 max         231 min
Histogram: 46 275 599 855 1048 1500 1903 1442 482 42

Total # of neighbors = 19677138
Ave neighs/atom = 65.558555
Ave special neighs/atom = 1.9870130
Neighbor list builds = 500
Dangerous builds = 490

Please see the log.cite file for references relevant to this simulation

Total wall time: 0:00:24
