LAMMPS (29 Oct 2020)
  using 12 OpenMP thread(s) per MPI task
Reading data file ...
  orthogonal box = (-709.00000 -659.00000 -772.50000) to (709.00000 659.00000 772.50000)
  16 by 16 by 32 MPI processor grid
  reading atoms ...
  300146 atoms
  reading velocities ...
  300146 velocities
  scanning bonds ...
  1 = max bonds/atom
  reading bonds ...
  298197 bonds
Finding 1-2 1-3 1-4 neighbors ...
  special bond factors lj:    0.0      0.0      0.0     
  special bond factors coul:  0.0      0.0      0.0     
     2 = max # of 1-2 neighbors
     2 = max # of 1-3 neighbors
     4 = max # of 1-4 neighbors
     6 = max # of special neighbors
  special bonds CPU = 0.240 seconds
  read_data CPU = 3.576 seconds
Setting atom values ...
  9745 settings made for charge
Setting atom values ...
  1949 settings made for charge
Setting atom values ...
  5847 settings made for charge
Setting atom values ...
  3898 settings made for charge
Finding 1-2 1-3 1-4 neighbors ...
  special bond factors lj:    0.0      1.0      1.0     
  special bond factors coul:  0.0      1.0      1.0     
     2 = max # of 1-2 neighbors
     6 = max # of special neighbors
  special bonds CPU = 0.070 seconds
Neighbor list info ...
  update every 20 steps, delay 0 steps, check yes
  max neighbors/atom: 2000, page size: 100000
  master list distance cutoff = 38
  ghost atom cutoff = 38
  binsize = 11.5, bins = 124 115 135
  1 neighbor lists, perpetual/occasional/extra = 1 0 0
  (1) pair ljlambda, perpetual
      attributes: half, newton on
      pair build: half/multi/newton
      stencil: half/multi/3d/newton
      bin: standard
Setting up Verlet run ...
  Unit style    : real
  Current step  : 0
  Time step     : 10.0
Per MPI rank memory allocation (min/avg/max) = 17.44 | 17.52 | 18.02 Mbytes
Step PotEng E_bond E_vdwl E_coul KinEng Temp Press Density 
       0   -50472.541    3507.3266   -53235.227   -744.64087    268402.57          300    8.9798637  0.017080537 
     100   -18707.627    59236.716   -77192.915   -751.42753    237225.35    265.15247   0.83982443  0.017080537 
     200   -16517.108    61898.115    -77658.64   -756.58326    235812.03    263.57277   0.58823835  0.017080537 
     300   -13790.159    64483.782   -77512.857   -761.08379    233800.93    261.32491   0.17715827  0.017080537 
     400   -11270.073    66606.595   -77132.814   -743.85286    232013.33    259.32687 -0.039465112  0.017080537 
     500   -9566.4961      68054.2    -76874.64     -746.056    231053.34    258.25387 -0.096012681  0.017080537 
     600   -7889.6112     69551.74   -76699.792   -741.55865    230161.15    257.25665  -0.11360667  0.017080537 
     700   -6847.1956    70485.482   -76591.766   -740.91148    229956.58      257.028 -0.021374995  0.017080537 
     800   -5866.4495    71291.547   -76410.841   -747.15547    229572.01    256.59815  0.015470343  0.017080537 
     900   -4905.0027    72326.964   -76484.182   -747.78502    229383.88    256.38788 -0.043438523  0.017080537 
    1000   -4151.6567    73115.716   -76517.606   -749.76756    229283.86    256.27608 -0.054404503  0.017080537 
    1100   -3509.2102    73729.727   -76477.631    -761.3054    229434.22    256.44414 -0.076836798  0.017080537 
    1200   -3229.6912    73899.329   -76369.682   -759.33854    230060.49    257.14413 -0.044321251  0.017080537 
    1300   -3099.6186    74084.111   -76436.296   -747.43374    230621.66    257.77137   0.03867687  0.017080537 
    1400   -2367.8109    74887.638   -76504.748   -750.70093    230627.81    257.77825  0.032334805  0.017080537 
    1500   -1779.4232    75302.013   -76323.232   -758.20456    230806.56    257.97803  0.036074551  0.017080537 
    1600   -1566.3214    75608.806   -76422.673   -752.45477    231318.03    258.54972 -0.038637377  0.017080537 
    1700   -975.82413    76314.143   -76543.701   -746.26622    231519.55    258.77497 -0.030802425  0.017080537 
    1800   -911.44516     76247.08   -76413.691   -744.83335     232177.9    259.51082  0.027719509  0.017080537 
    1900   -400.69614    76599.702   -76246.489     -753.909    232360.85     259.7153  0.035103902  0.017080537 
    2000   -222.91301    76926.228   -76410.796   -738.34457    232862.48    260.27599 -0.038753111  0.017080537 
    2100    426.47943     77364.21   -76196.943   -740.78805    232871.94    260.28656  -0.00670975  0.017080537 
    2200    420.75705    77366.134   -76197.717   -747.65936    233603.85    261.10463 0.0040205052  0.017080537 
    2300    1084.0026    77915.389   -76074.434   -756.95212    233709.05    261.22222  0.012415681  0.017080537 
    2400    948.05171    77766.518   -76062.471   -755.99522    234656.91    262.28166  0.022167132  0.017080537 
    2500    1081.0206    78100.944   -76265.033   -754.89057    235198.45    262.88696 0.0079691217  0.017080537 
    2600    1778.0936    78605.762   -76072.643    -755.0263    235090.78    262.76661   0.05887864  0.017080537 
    2700    1523.2453    78397.871   -76122.189   -752.43659    236045.83     263.8341  0.018458462  0.017080537 
    2800    2107.4797    78886.439   -76028.216    -750.7425    236017.89    263.80286 -0.0019260326  0.017080537 
    2900    2166.2947    78779.404   -75869.651   -743.45778    236634.58    264.49216 -0.021967678  0.017080537 
    3000    2431.2019    78962.689   -75781.629   -749.85802     237078.1    264.98789 0.0040545848  0.017080537 
    3100    2528.0837    79136.507    -75855.63   -752.79344    237527.02    265.48965 0.0090558684  0.017080537 
    3200    3001.5509    79343.694   -75590.742   -751.40071    237497.47    265.45663 -0.0058381776  0.017080537 
    3300    2941.9286    79395.872   -75703.314   -750.62976    238199.18    266.24095 -0.034350734  0.017080537 
    3400    3264.6352    79472.687   -75455.343   -752.70933    238509.84    266.58818  0.067106185  0.017080537 
    3500    3495.9608    79713.617   -75467.533   -750.12355    238773.47    266.88284  0.060709404  0.017080537 
    3600     3786.845    80068.124   -75530.007   -751.27173    239111.74    267.26094 -0.062153098  0.017080537 
    3700    3824.4398    79959.503   -75381.735    -753.3285    239644.38    267.85627  0.038777874  0.017080537 
    3800    4265.5478    80241.895   -75222.301   -754.04568    239785.68    268.01421  0.010893385  0.017080537 
    3900    4159.6006    80157.117   -75233.127   -764.38965    240595.74    268.91964 -0.00056068078  0.017080537 
    4000    4934.0851    80813.931   -75124.804   -755.04254    240417.82    268.72078  0.029397726  0.017080537 
    4100    4898.0421    80549.862   -74897.599   -754.22094    241098.36    269.48143  0.096892626  0.017080537 
    4200    4909.1007    80698.717   -75029.591   -760.02552    241643.26    270.09047   0.05332671  0.017080537 
    4300    5203.4406    80942.428   -74980.735   -758.25305    241778.07    270.24116  0.032880329  0.017080537 
    4400     5311.066    81019.679   -74958.996   -749.61781    242100.95    270.60204  -0.02707214  0.017080537 
    4500    5670.9929     81149.41   -74718.341   -760.07631    242387.97    270.92285  0.074684498  0.017080537 
    4600      5893.52    81258.555   -74604.309   -760.72609    242829.47    271.41633  0.057086275  0.017080537 
    4700    5974.1872    81401.003   -74668.017   -758.79827    243257.05    271.89425  0.054089319  0.017080537 
    4800    6201.6559    81353.343   -74392.996   -758.69035     243649.7    272.33312  0.090208207  0.017080537 
    4900    6189.2377      81493.1   -74540.852   -763.01086    244138.36    272.87931  0.052695162  0.017080537 
    5000    6725.5801    81749.305   -74261.245   -762.47968     244037.1    272.76613  0.011402047  0.017080537 
    5100    6544.2638    81722.055    -74407.87    -769.9214    244816.29    273.63705 0.0069851307  0.017080537 
    5200    6986.0581    82011.156   -74263.899   -761.19971    244973.67    273.81295  0.068920491  0.017080537 
    5300    7314.2642    82067.836   -73988.845   -764.72657    245069.07    273.91959  0.035874066  0.017080537 
    5400    7333.3441    82162.846   -74075.532   -753.96906    245552.11     274.4595 0.0079518168  0.017080537 
    5500    7597.0183    82338.029   -73980.819   -760.19208    245724.93    274.65266  0.083652046  0.017080537 
    5600     7978.983    82542.409   -73810.892   -752.53373    245767.75    274.70051  0.010856007  0.017080537 
    5700    8040.7186    82272.771   -73472.015   -760.03816     246168.1    275.14799   0.12879374  0.017080537 
    5800    8067.9777    82356.386   -73533.875    -754.5334    246592.32    275.62217  0.081414706  0.017080537 
    5900    8422.4132    82788.326   -73614.162    -751.7506    246588.98    275.61842  0.096168308  0.017080537 
    6000    8755.8135    82884.631   -73378.574   -750.24405    246765.61    275.81585  0.083730212  0.017080537 
    6100    8647.7622    82962.013   -73563.504   -750.74651    247274.58    276.38474 0.0089625049  0.017080537 
    6200    8950.8253    83131.365   -73430.483   -750.05591    247334.46    276.45167  0.042180148  0.017080537 
    6300    9099.9181    83149.445   -73288.765   -760.76205    247626.23    276.77778   0.10987234  0.017080537 
    6400    8996.6503    83090.167   -73333.883   -759.63377    248101.77    277.30931   0.13118178  0.017080537 
    6500    9156.8225    83092.451   -73173.508   -762.12044    248395.48     277.6376   0.10409087  0.017080537 
    6600    9643.7644    83537.151    -73130.88   -762.50646    248370.25     277.6094  0.028632138  0.017080537 
    6700    9546.1281    83512.657   -73198.625   -767.90358    248841.25    278.13585   0.06340539  0.017080537 
    6800     9781.675    83582.099   -73025.285   -775.13823     249086.3    278.40974  0.056139506  0.017080537 
    6900    9972.9286    83846.825   -73110.139   -763.75771    249212.12    278.55037 -0.005986149  0.017080537 
    7000    10025.947    83565.367   -72775.255   -764.16532    249586.38    278.96869  0.030933903  0.017080537 
    7100     10399.98     83920.03   -72756.637   -763.41217    249473.26    278.84225 -0.032872028  0.017080537 
    7200     11001.41    84297.022   -72540.103   -755.50919    249316.91     278.6675  0.040344389  0.017080537 
    7300    10427.749     83970.68   -72786.469   -756.46183    250357.28    279.83035 -0.030010714  0.017080537 
    7400    10779.917    83918.156   -72384.733   -753.50608     250514.6    280.00619   0.13010033  0.017080537 
    7500    11024.422     84143.64   -72358.452   -760.76602    250663.33    280.17242  0.025754256  0.017080537 
    7600    10956.121    84044.103   -72335.365    -752.6174    251054.92    280.61012  0.058777174  0.017080537 
    7700     11270.11    84333.869   -72320.211   -743.54815    251174.98    280.74431  0.093801205  0.017080537 
    7800    11094.403    84124.843   -72276.562   -753.87793    251709.12    281.34133    0.1014919  0.017080537 
    7900    11141.688    84364.909   -72467.201   -756.02044    251930.21    281.58845 0.0009384322  0.017080537 
    8000    11566.326    84373.237   -72040.056   -766.85582     251753.1    281.39049  0.053851023  0.017080537 
    8100    11406.395    84438.219   -72272.283   -759.54028    252125.31    281.80651  0.070211118  0.017080537 
    8200    11694.653    84366.348    -71902.59    -769.1053     252201.7    281.89189  0.082888492  0.017080537 
    8300    11747.339     84442.11   -71931.666   -763.10545    252404.69    282.11878   0.11632257  0.017080537 
    8400    12060.849    84745.878   -71924.923   -760.10588    252312.01    282.01519   0.10808747  0.017080537 
    8500    12351.331    84863.181    -71755.33   -756.51954    252502.84    282.22849 -0.013506986  0.017080537 
    8600    12173.385    84785.365   -71858.196   -753.78436    252919.07    282.69372 0.0079222383  0.017080537 
    8700    12375.593    84710.814   -71572.893   -762.32745    252935.33    282.71189  0.086495299  0.017080537 
    8800    12314.605    84717.106    -71637.41   -765.09045    253298.16    283.11744   0.12873987  0.017080537 
    8900    12785.084    85079.584   -71532.724   -761.77549    252986.48    282.76906  0.015489088  0.017080537 
    9000    12789.689     84787.41   -71236.415   -761.30543    253231.99    283.04348   0.14499773  0.017080537 
    9100    12569.093    84885.706   -71553.098   -763.51525    253664.49    283.52689  -0.03495489  0.017080537 
    9200    13489.996    85457.233   -71202.625   -764.61211    252902.92    282.67567 -0.030877103  0.017080537 
    9300    12915.592    84925.219   -71249.339   -760.28757    253624.17    283.48183 -0.035780644  0.017080537 
    9400    13435.784    85283.217    -71084.61   -762.82271    253382.38    283.21158   0.09173571  0.017080537 
    9500    13298.787    85123.268   -71069.468   -755.01362    253795.77    283.67362  0.045135022  0.017080537 
    9600    13319.534    85137.134   -71052.335   -765.26425    254227.22    284.15587  0.092830894  0.017080537 
    9700    13855.955    85458.726   -70852.612   -750.15987    254077.04    283.98801   0.11126018  0.017080537 
    9800    13611.998    85279.154   -70912.421   -754.73529     254549.1    284.51565  0.055528458  0.017080537 
    9900    13749.137    84962.733   -70464.262   -749.33375    254759.89    284.75125   0.11725618  0.017080537 
   10000    14269.065    85649.766   -70622.131   -758.56982    254556.45    284.52386   0.03408169  0.017080537 
Loop time of 19.3776 on 98304 procs for 10000 steps with 300146 atoms

Performance: 445.876 ns/day, 0.054 hours/ns, 516.060 timesteps/s
936.6% CPU use with 8192 MPI tasks x 12 OpenMP threads

MPI task timing breakdown:
Section |  min time  |  avg time  |  max time  |%varavg| %total
---------------------------------------------------------------
Pair    | 0.30494    | 1.3571     | 2.1608     |  28.1 |  7.00
Bond    | 0.022369   | 0.02913    | 0.036612   |   1.0 |  0.15
Neigh   | 0.23948    | 0.67741    | 0.9513     |  13.4 |  3.50
Comm    | 6.3082     | 9.0173     | 16.462     |  57.1 | 46.53
Output  | 0.022002   | 0.054614   | 0.07401    |   2.0 |  0.28
Modify  | 1.0697     | 7.9299     | 10.5       |  55.5 | 40.92
Other   |            | 0.3121     |            |       |  1.61

Nlocal:        36.6389 ave          41 max          33 min
Histogram: 28 210 1057 2421 0 2679 1345 383 68 1
Nghost:        2101.81 ave        3596 max         136 min
Histogram: 25 163 557 1152 1242 1256 1272 1416 1032 77
Neighs:        2394.62 ave        4264 max         332 min
Histogram: 104 383 665 913 1160 1642 1943 1122 238 22

Total # of neighbors = 19616750
Ave neighs/atom = 65.357359
Ave special neighs/atom = 1.9870130
Neighbor list builds = 500
Dangerous builds = 490

Please see the log.cite file for references relevant to this simulation

Total wall time: 0:00:23
