LAMMPS (29 Oct 2020)
  using 12 OpenMP thread(s) per MPI task
Reading data file ...
  orthogonal box = (-709.00000 -659.00000 -772.50000) to (709.00000 659.00000 772.50000)
  16 by 16 by 32 MPI processor grid
  reading atoms ...
  300146 atoms
  reading velocities ...
  300146 velocities
  scanning bonds ...
  1 = max bonds/atom
  reading bonds ...
  298197 bonds
Finding 1-2 1-3 1-4 neighbors ...
  special bond factors lj:    0.0      0.0      0.0     
  special bond factors coul:  0.0      0.0      0.0     
     2 = max # of 1-2 neighbors
     2 = max # of 1-3 neighbors
     4 = max # of 1-4 neighbors
     6 = max # of special neighbors
  special bonds CPU = 0.238 seconds
  read_data CPU = 3.550 seconds
Setting atom values ...
  9745 settings made for charge
Setting atom values ...
  1949 settings made for charge
Setting atom values ...
  5847 settings made for charge
Setting atom values ...
  3898 settings made for charge
Finding 1-2 1-3 1-4 neighbors ...
  special bond factors lj:    0.0      1.0      1.0     
  special bond factors coul:  0.0      1.0      1.0     
     2 = max # of 1-2 neighbors
     6 = max # of special neighbors
  special bonds CPU = 0.071 seconds
Neighbor list info ...
  update every 20 steps, delay 0 steps, check yes
  max neighbors/atom: 2000, page size: 100000
  master list distance cutoff = 38
  ghost atom cutoff = 38
  binsize = 11.5, bins = 124 115 135
  1 neighbor lists, perpetual/occasional/extra = 1 0 0
  (1) pair ljlambda, perpetual
      attributes: half, newton on
      pair build: half/multi/newton
      stencil: half/multi/3d/newton
      bin: standard
Setting up Verlet run ...
  Unit style    : real
  Current step  : 0
  Time step     : 10.0
Per MPI rank memory allocation (min/avg/max) = 17.44 | 17.52 | 18.02 Mbytes
Step PotEng E_bond E_vdwl E_coul KinEng Temp Press Density 
       0   -50472.541    3507.3266   -53235.227   -744.64087    268402.57          300    8.9798637  0.017080537 
     100   -18711.814    59228.971   -77189.343   -751.44152    237201.07    265.12533   0.84068959  0.017080537 
     200   -16532.405    61886.244   -77662.024   -756.62484    235828.12    263.59076   0.59030938  0.017080537 
     300   -13778.531    64527.674   -77544.863   -761.34197    233791.47    261.31434   0.17097213  0.017080537 
     400   -11152.602    66678.994   -77088.082   -743.51401    231872.45    259.16941 -0.042998919  0.017080537 
     500   -9566.0415    68098.565   -76920.113    -744.4933     230862.3    258.04034 -0.094686209  0.017080537 
     600   -7954.4176    69584.198   -76797.314   -741.30192    230013.24    257.09133  -0.16497571  0.017080537 
     700   -7058.8302    70382.044   -76697.138     -743.736    229981.98    257.05638  -0.02794222  0.017080537 
     800   -5805.9277    71406.745   -76467.078   -745.59405    229517.55    256.53728 -0.025575297  0.017080537 
     900   -4967.0793    72275.169   -76498.343   -743.90536    229442.16    256.45301  -0.04030263  0.017080537 
    1000   -4206.0122    73028.986   -76485.996   -749.00166    229393.23    256.39833  -0.11397769  0.017080537 
    1100   -3451.5844    73535.155   -76243.425   -743.31479    229472.69    256.48714 -0.028621345  0.017080537 
    1200   -3245.6527    73789.438   -76291.636   -743.45459    230073.92    257.15914 -0.029733072  0.017080537 
    1300   -2577.3727    74460.376   -76285.632   -752.11697    230167.64     257.2639 -0.054463024  0.017080537 
    1400   -2033.8558    74926.985   -76207.689   -753.15126    230477.58    257.61033 -0.013231717  0.017080537 
    1500   -1384.9735    75686.409   -76319.465   -751.91803    230704.18     257.8636 -0.044845095  0.017080537 
    1600   -1440.7525    75459.361    -76153.06   -747.05351     231470.6    258.72025   0.02099414  0.017080537 
    1700   -886.57259    76163.394   -76298.419   -751.54695    231706.05    258.98342  0.016523197  0.017080537 
    1800   -482.65197    76622.501   -76352.677   -752.47595    232000.89    259.31296 -0.022104285  0.017080537 
    1900    78.902955    76878.485   -76062.211   -737.37108    232235.48    259.57517 -0.010899064  0.017080537 
    2000   -56.127241    76960.143   -76263.888   -752.38192    233109.52    260.55211 -0.059871165  0.017080537 
    2100    489.85295    77261.909   -76028.862   -743.19348    233362.23    260.83458 0.0030823715  0.017080537 
    2200    673.50002    77516.602   -76107.411    -735.6902    233834.79    261.36276 -0.019296731  0.017080537 
    2300    871.04904    77750.039   -76129.195   -749.79563    234408.59    262.00412  0.021315935  0.017080537 
    2400    1171.3947    77848.574    -75924.63   -752.54911    234682.63    262.31042 -0.0014874032  0.017080537 
    2500    1650.6387    78200.978   -75798.975   -751.36426    234787.77    262.42793  0.001700737  0.017080537 
    2600     1746.855    78391.902   -75891.751   -753.29527    235364.99     263.0731 -0.098931385  0.017080537 
    2700    1976.1845    78529.352   -75802.515   -750.65265    235948.36    263.72515  0.026040437  0.017080537 
    2800    1978.8574    78521.047   -75788.977   -753.21294    236480.33    264.31975  0.039596758  0.017080537 
    2900    2081.1383    78503.883   -75673.408   -749.33639    236918.38    264.80936  0.059361717  0.017080537 
    3000    2659.5864    79023.222   -75619.994   -743.64158    236952.37    264.84735   -0.0265721  0.017080537 
    3100    3105.9797    79259.005   -75407.469   -745.55554    237090.67    265.00193 -0.0091227078  0.017080537 
    3200    3137.1255    79461.975   -75579.254   -745.59512    237676.63    265.65688 -0.033073666  0.017080537 
    3300     3513.164    79564.139   -75311.547   -739.42852    237915.35    265.92371  0.025195611  0.017080537 
    3400    3610.1054    79701.113    -75348.88   -742.12827    238375.33    266.43784 -0.012403508  0.017080537 
    3500    3404.1986    79482.217   -75332.132   -745.88706    239193.62    267.35245  0.024720305  0.017080537 
    3600    3829.8766    79773.683   -75196.506   -747.30028    239325.86    267.50026  0.046430614  0.017080537 
    3700    3898.1362    79910.532   -75252.812   -759.58351    239806.66    268.03767 0.0071072812  0.017080537 
    3800    3929.8353    79869.094   -75171.373   -767.88583    240313.17     268.6038  0.048034581  0.017080537 
    3900    4570.6564    80326.434   -74998.371   -757.40727     240188.3    268.46424  0.047624964  0.017080537 
    4000    4780.7581    80615.249   -75077.299   -757.19282    240477.18    268.78712 -0.002907576  0.017080537 
    4100    5156.3859    80975.183   -75064.424   -754.37363    240789.97    269.13673  0.034613941  0.017080537 
    4200    5277.9095    81036.937   -75007.285   -751.74195    241220.22    269.61763 -0.017836385  0.017080537 
    4300    5090.9173    80856.005   -75009.301   -755.78691    241965.06    270.45016  0.012311244  0.017080537 
    4400    5740.2509    81222.143    -74729.77   -752.12208    241793.58     270.2585  0.051591646  0.017080537 
    4500    5285.9333    80775.705   -74736.787   -752.98472    242952.44    271.55377  0.045328947  0.017080537 
    4600     6043.175    81493.926   -74696.831   -753.91944    242705.89    271.27821  0.025931069  0.017080537 
    4700    6071.7977    81492.895   -74666.885   -754.21157     243165.9    271.79237 -0.016424653  0.017080537 
    4800    5972.0701    81406.981   -74677.085   -757.82656     243791.4     272.4915 0.0091643459  0.017080537 
    4900     6557.852    81894.818   -74577.147   -759.81882    243717.62    272.40904  0.058432336  0.017080537 
    5000    6383.0949    81708.999   -74560.456   -765.44804    244384.76    273.15471  0.034109727  0.017080537 
    5100    6232.9314    81600.747   -74600.923   -766.89286    245099.26    273.95333   0.06281266  0.017080537 
    5200     6636.117    81763.842   -74366.691   -761.03372    245215.45     274.0832  0.065283078  0.017080537 
    5300    7127.1568    82132.346   -74240.444   -764.74494    245160.52     274.0218   0.10145498  0.017080537 
    5400    7205.2324     82205.79   -74240.707   -759.84971    245635.49    274.55269  0.088983242  0.017080537 
    5500    7377.8131    82251.569   -74111.597   -762.15812    246064.91    275.03266   0.08621759  0.017080537 
    5600    7636.7321    82307.818   -73915.144   -755.94165    246231.78    275.21918   0.10779603  0.017080537 
    5700    7626.8039    82429.711   -74043.412   -759.49495    246567.23    275.59412  0.080848943  0.017080537 
    5800     7992.289    82486.768   -73744.227   -750.25253    246786.13    275.83879  0.063873637  0.017080537 
    5900    8289.1108    82826.788   -73773.901   -763.77662    246874.39    275.93744 -0.027883814  0.017080537 
    6000    8603.3363    83142.614   -73785.166   -754.11104    246985.65     276.0618 0.0011404427  0.017080537 
    6100    8604.9023     83062.97   -73714.238   -743.83027    247300.28    276.41347 -0.042191407  0.017080537 
    6200    8582.1806    82941.037   -73615.313   -743.54349    247783.95    276.95408  0.088419939  0.017080537 
    6300    9219.3697    83201.556   -73228.544   -753.64195    247642.01    276.79543   0.10851537  0.017080537 
    6400    9050.5929    83138.551   -73339.455   -748.50293    248260.68    277.48692  0.079163546  0.017080537 
    6500    9261.8838    83441.169   -73424.512   -754.77338    248449.57    277.69806 -0.021968041  0.017080537 
    6600    9470.5937    83319.583   -73087.401   -761.58829    248433.62    277.68022  0.078832272  0.017080537 
    6700    9220.8828      83038.2   -73064.711   -752.60563    249026.71    278.34314  0.094855372  0.017080537 
    6800    9663.2446    83470.078   -73053.964   -752.86928    248861.68    278.15868  0.012252399  0.017080537 
    6900    9777.2142    83723.675   -73199.214   -747.24663    249146.56     278.4771  0.048117682  0.017080537 
    7000    10004.006    83805.453   -73043.429   -758.01729    249341.63    278.69513  0.083774317  0.017080537 
    7100    10325.043    84022.816   -72938.935   -758.83748    249449.12    278.81528  0.030613892  0.017080537 
    7200    10721.095    84159.146   -72677.249   -760.80223    249534.51    278.91072  0.079457514  0.017080537 
    7300    10610.752     83950.36    -72583.41   -756.19793    249896.16    279.31494  0.077926399  0.017080537 
    7400    10392.067    83800.999   -72652.206   -756.72665     250398.2    279.87608   0.08833397  0.017080537 
    7500    10688.482    83886.074   -72450.379   -747.21283    250471.12    279.95759   0.10740507  0.017080537 
    7600    10632.593    83761.212   -72381.697   -746.92269    251000.36    280.54913   0.12511886  0.017080537 
    7700    10893.845    84097.596   -72455.247   -748.50388    251100.52    280.66108  0.020019124  0.017080537 
    7800    11043.945    84127.303   -72330.554   -752.80387    251208.33    280.78158  0.065605737  0.017080537 
    7900    11029.305    84209.877   -72427.817   -752.75476    251417.68    281.01558  0.068894271  0.017080537 
    8000    11621.456    84534.121   -72164.923   -747.74234    251217.65    280.79201 0.0070055892  0.017080537 
    8100    11163.655    83969.155   -72056.054   -749.44537    252020.03    281.68884   0.14191632  0.017080537 
    8200    11631.346    84513.691   -72129.388   -752.95649     251998.6    281.66488    0.1323772  0.017080537 
    8300    11387.109    84244.222   -72108.361   -748.75163    252665.16    282.40992   0.12304083  0.017080537 
    8400    12293.683    84965.545   -71916.802   -755.05897    252126.09    281.80739  0.067902389  0.017080537 
    8500    12416.696    85032.272   -71858.565   -757.01086    252373.66     282.0841  0.020147616  0.017080537 
    8600    12582.614    84859.131   -71521.916   -754.60041    252582.57     282.3176  0.091505533  0.017080537 
    8700    12536.193    84833.629   -71540.975   -756.46041    252831.03    282.59532  0.088510851  0.017080537 
    8800    12784.303     85129.88    -71588.69   -756.88616    252861.87    282.62979   0.11014244  0.017080537 
    8900    12566.318    84709.809   -71387.958    -755.5337    253389.23    283.21923  0.090896919  0.017080537 
    9000    12793.208    84890.336   -71332.085   -765.04192    253516.13    283.36107  0.077736957  0.017080537 
    9100    13251.003    85235.199   -71225.006   -759.18941    253384.03    283.21342  0.015233514  0.017080537 
    9200     13219.82    85227.579   -71242.134    -765.6244    253756.61    283.62985  0.013167515  0.017080537 
    9300    13403.303    85223.178   -71052.524   -767.35074    254020.59    283.92492  0.013414927  0.017080537 
    9400    13279.858    85368.759   -71322.906   -765.99561    254459.03    284.41497   0.03605791  0.017080537 
    9500    13874.414    85452.117   -70812.763   -764.94044    254056.43    283.96497 0.0018766681  0.017080537 
    9600    13630.014    85117.923   -70715.631   -772.27821    254451.19     284.4062  0.066462914  0.017080537 
    9700    13905.967    85583.457     -70910.8   -766.69089    254499.93    284.46068 -0.0090517879  0.017080537 
    9800    13821.442    85354.791   -70766.812   -766.53706    254858.73    284.86172  0.045282955  0.017080537 
    9900    14201.284    85688.062   -70722.276   -764.50192    254693.19     284.6767  0.030772136  0.017080537 
   10000    14101.127    85468.235   -70592.989   -774.11776    255027.33    285.05018  0.054635276  0.017080537 
Loop time of 19.3384 on 98304 procs for 10000 steps with 300146 atoms

Performance: 446.780 ns/day, 0.054 hours/ns, 517.107 timesteps/s
936.8% CPU use with 8192 MPI tasks x 12 OpenMP threads

MPI task timing breakdown:
Section |  min time  |  avg time  |  max time  |%varavg| %total
---------------------------------------------------------------
Pair    | 0.29314    | 1.3572     | 2.0656     |  28.5 |  7.02
Bond    | 0.022941   | 0.029126   | 0.036725   |   1.0 |  0.15
Neigh   | 0.23675    | 0.69732    | 0.94927    |  14.0 |  3.61
Comm    | 6.1713     | 8.9179     | 16.795     |  57.5 | 46.11
Output  | 0.021757   | 0.052849   | 0.071374   |   2.0 |  0.27
Modify  | 1.0508     | 7.9729     | 10.256     |  55.2 | 41.23
Other   |            | 0.3111     |            |       |  1.61

Nlocal:        36.6389 ave          41 max          33 min
Histogram: 27 218 1047 2414 0 2709 1324 377 70 6
Nghost:        2096.99 ave        3649 max         165 min
Histogram: 44 168 645 1167 1260 1295 1282 1505 770 56
Neighs:        2388.70 ave        4148 max         260 min
Histogram: 64 334 612 885 1058 1501 1840 1444 416 38

Total # of neighbors = 19568226
Ave neighs/atom = 65.195691
Ave special neighs/atom = 1.9870130
Neighbor list builds = 500
Dangerous builds = 490

Please see the log.cite file for references relevant to this simulation

Total wall time: 0:00:23
